qc.in
qchem qc.in_16478.0 /tmp/qchem16478/ 0
/software/QChem/5.3/exe/qcprog.exe_s qc.in_16478.0 /tmp/qchem16478/
                  Welcome to Q-Chem
     A Quantum Leap Into The Future Of Chemistry


 Q-Chem 5.3, Q-Chem, Inc., Pleasanton, CA (2020)

 License issued to: SRG Mark Ratner, Northwestern University

 Yihan Shao,  Zhengting Gan,  E. Epifanovsky,  A. T. B. Gilbert,  M. Wormit,  
 J. Kussmann,  A. W. Lange,  A. Behn,  Jia Deng,  Xintian Feng,  D. Ghosh,  
 M. Goldey,  P. R. Horn,  L. D. Jacobson,  I. Kaliman,  T. Kus,  A. Landau,  
 Jie Liu,  E. I. Proynov,  R. M. Richard,  R. P. Steele,  E. J. Sundstrom,  
 H. L. Woodcock III,  P. M. Zimmerman,  D. Zuev,  B. Alam,  B. Albrecht,  
 A. Aldossary,  E. Alguire,  S. A. Baeppler,  D. Barton,  Z. Benda,  
 Y. A. Bernard,  E. J. Berquist,  K. B. Bravaya,  H. Burton,  K. Carter-Fenk,  
 D. Casanova,  Chun-Min Chang,  Yunqing Chen,  A. Chien,  K. D. Closser,  
 M. P. Coons,  S. Coriani,  S. Dasgupta,  A. L. Dempwolff,  M. Diedenhofen,  
 Hainam Do,  R. G. Edgar,  Po-Tung Fang,  S. Faraji,  S. Fatehi,  
 Qingguo Feng,  J. Fosso-Tande,  J. Gayvert,  Qinghui Ge,  A. Ghysels,  
 G. Gidofalvi,  J. Gomes,  J. Gonthier,  S. Gulania,  A. Gunina,  D. Hait,  
 M. W. D. Hanson-Heine,  S. Hammes-Schiffer,  P. H. P. Harbach,  
 A. W. Hauser,  M. F. Herbst,  J. E. Herr,  E. G. Hohenstein,  Z. C. Holden,  
 S. Houck,  Kerwin Hui,  B. C. Huynh,  M. Ivanov,  T.-C. Jagau,  Hyunjun Ji,  
 B. Kaduk,  K. Khistyaev,  Jaehoon Kim,  P. Klunzinger,  K. Koh,  
 D. Kosenkov,  L. Koulias,  T. Kowalczyk,  C. M. Krauter,  A. Kunitsa,  
 Ka Un Lao,  A. Laurent,  K. V. Lawler,  Joonho Lee,  D. Lefrancois,  
 S. Lehtola,  D. S. Levine,  Yi-Pei Li,  You-Sheng Lin,  Fenglai Liu,  
 Kuan-Yu Liu,  E. Livshits,  M. Loipersberger,  A. Luenser,  P. Manohar,  
 E. Mansoor,  S. F. Manzer,  Shan-Ping Mao,  Yuezhi Mao,  N. Mardirossian,  
 A. V. Marenich,  T. Markovich,  L. A. Martinez-Martinez,  S. A. Maurer,  
 N. J. Mayhall,  S. C. McKenzie,  J.-M. Mewes,  P. Morgante,  A. F. Morrison,  
 J. W. Mullinax,  K. Nanda,  T. S. Nguyen-Beck,  R. Olivares-Amaya,  
 K. J. Oosterbaan,  J. A. Parkhill,  S. K. Paul,  F. Pavosevic,  Zheng Pei,  
 T. M. Perrine,  F. Plasser,  P. Pokhilko,  S. Prager,  A. Prociuk,  
 E. Ramos,  B. Rana,  D. R. Rehn,  F. Rob,  E. Rossomme,  M. Scheurer,  
 M. Schneider,  N. Sergueev,  S. M. Sharada,  S. Sharma,  W. Skomorowski,  
 D. W. Small,  T. Stauch,  C. J. Stein,  T. Stein,  Yu-Chuan Su,  
 S. P. Veccham,  Zhen Tao,  A. J. W. Thom,  A. Tkatchenko,  T. Tsuchimochi,  
 N. M. Tubman,  L. Vogt,  M. L. Vidal,  O. Vydrov,  M. A. Watson,  J. Wenzel,  
 M. de Wergifosse,  T. A. Wesolowski,  A. White,  J. Witte,  A. Yamada,  
 Jun Yang,  K. Yao,  S. Yeganeh,  S. R. Yost,  Zhi-Qiang You,  A. Zech,  
 Igor Ying Zhang,  Xing Zhang,  Yan Zhao,  Ying Zhu,  B. R. Brooks,  
 G. K. L. Chan,  C. J. Cramer,  M. S. Gordon,  W. J. Hehre,  A. Klamt,  
 M. W. Schmidt,  C. D. Sherrill,  D. G. Truhlar,  A. Aspuru-Guzik,  R. Baer,  
 A. T. Bell,  N. A. Besley,  Jeng-Da Chai,  A. E. DePrince, III,  
 R. A. DiStasio Jr.,  A. Dreuw,  B. D. Dunietz,  T. R. Furlani,  
 Chao-Ping Hsu,  Yousung Jung,  Jing Kong,  D. S. Lambrecht,  WanZhen Liang,  
 C. Ochsenfeld,  V. A. Rassolov,  L. V. Slipchenko,  J. E. Subotnik,  
 T. Van Voorhis,  J. M. Herbert,  A. I. Krylov,  P. M. W. Gill,  M. Head-Gordon

 Contributors to earlier versions of Q-Chem not listed above: 
 R. D. Adamson,  B. Austin,  J. Baker,  G. J. O. Beran,  K. Brandhorst,  
 S. T. Brown,  E. F. C. Byrd,  A. K. Chakraborty,  C.-L. Cheng,  
 Siu Hung Chien,  D. M. Chipman,  D. L. Crittenden,  H. Dachsel,  
 R. J. Doerksen,  A. D. Dutoi,  L. Fusti-Molnar,  W. A. Goddard III,  
 A. Golubeva-Zadorozhnaya,  S. R. Gwaltney,  G. Hawkins,  A. Heyden,  
 S. Hirata,  G. Kedziora,  F. J. Keil,  C. Kelley,  Jihan Kim,  R. A. King,  
 R. Z. Khaliullin,  P. P. Korambath,  W. Kurlancheek,  A. M. Lee,  M. S. Lee,  
 S. V. Levchenko,  Ching Yeh Lin,  D. Liotard,  R. C. Lochan,  I. Lotan,  
 P. E. Maslen,  N. Nair,  D. P. O'Neill,  D. Neuhauser,  E. Neuscamman,  
 C. M. Oana,  R. Olson,  B. Peters,  R. Peverati,  P. A. Pieniazek,  
 Y. M. Rhee,  J. Ritchie,  M. A. Rohrdanz,  E. Rosta,  N. J. Russ,  
 H. F. Schaefer III,  N. E. Schultz,  N. Shenvi,  A. C. Simmonett,  A. Sodt,  
 D. Stuck,  K. S. Thanthiriwatte,  V. Vanovschi,  Tao Wang,  A. Warshel,  
 C. F. Williams,  Q. Wu,  X. Xu,  W. Zhang

 Please cite Q-Chem as follows:
 Y. Shao et al., Mol. Phys. 113, 184-215 (2015)
 DOI: 10.1080/00268976.2014.952696

 Q-Chem 5.3.1 for Intel X86 EM64T Linux

 Parts of Q-Chem use Armadillo 9.800.1 (Horizon Scraper).
 http://arma.sourceforge.net/

 Q-Chem begins on Wed Mar 17 22:42:50 2021  

Host: 
0

     Scratch files written to /tmp/qchem16478//
 Aug2920 |scratch|qcdevops|jenkins|workspace|build_RNUM 4082   
Processing $rem in /software/QChem/5.3/config/preferences:
Processing $rem in /home/ahs1068/.qchemrc:

Checking the input file for inconsistencies... 	...done.

--------------------------------------------------------------
User input:
--------------------------------------------------------------
$comment
 TDDFT calculation
$end

$molecule
0 1
C         -1.19706       -0.84098        0.04162
C         -0.21153       -1.79932        0.02794
C          1.09428       -1.23220        0.15782
C          1.07107        0.14591        0.27326
S         -0.55547        0.72556        0.22057
C          3.46260        3.17326        0.25101
C          4.23624        2.10429       -0.16068
C          3.49066        0.87254       -0.11285
C          2.19480        1.05468        0.34062
S          2.04835        2.60949        1.04455
C          3.61403       13.10949        0.13008
C          2.37141       13.72039        0.10070
C          2.44438       15.13728        0.07585
C          3.74321       15.60784        0.10929
S          4.85154       14.29032        0.18135
C          5.31315       19.18776        0.08007
C          3.95016       19.34690        0.00848
C          3.27319       18.09349        0.01074
C          4.13179       17.00574        0.08632
S          5.76353       17.54149        0.14871
C          3.26917        9.40076       -0.20529
C          4.59124        9.27771        0.21672
C          5.19950        8.00580        0.37089
C          4.44115        6.81972        0.14998
C          3.13682        6.97766       -0.31900
C          2.54578        8.23254       -0.48597
C          2.87326       10.76934       -0.29428
C          3.83409       11.67713        0.08871
S          5.27796       10.85683        0.49015
C          4.72486        5.40482        0.36027
C          3.65074        4.58403        0.07176
S          2.39026        5.47626       -0.65503
O          6.50079        7.98492        0.85952
C          7.39310        7.09930        0.18743
O          1.26492        8.28208       -1.02740
C          0.29896        8.93827       -0.20808
H         -2.26599       -0.97900       -0.04820
H         -0.41725       -2.85680       -0.08007
H          2.00479       -1.81733        0.15722
H          5.21597        2.20044       -0.60879
H          3.85925       -0.06313       -0.51802
H          1.43129       13.18337        0.07990
H          1.56881       15.77246        0.03014
H          6.06945       19.96005        0.09534
H          3.45927       20.31112       -0.04311
H          2.19488       18.00755       -0.04112
H          1.88849       11.07307       -0.61671
H          5.64557        5.02392        0.77653
H          8.36209        7.59866        0.08633
H          7.05972        6.80730       -0.81431
H          7.55130        6.21399        0.81096
H         -0.59965        8.31594       -0.16367
H          0.01671        9.87916       -0.69158
H          0.63624        9.13144        0.81620
$end

$rem
JOBTYPE        opt
METHOD         wB97X-D
BASIS          6-311G(d,p)
$end

--------------------------------------------------------------
 ----------------------------------------------------------------
             Standard Nuclear Orientation (Angstroms)
    I     Atom           X                Y                Z
 ----------------------------------------------------------------
    1      C       9.8941901053    -2.5623342391     0.1164171945
    2      C      10.6425530272    -1.4144973644     0.0055320059
    3      C       9.8328629450    -0.2369222036     0.0423066774
    4      C       8.4860257362    -0.5168013749     0.1863533789
    5      S       8.2335031159    -2.2235077129     0.2746060397
    6      C       5.0513826490     1.2338166698     0.0336374625
    7      C       5.9479209463     2.1633252349    -0.4592492137
    8      C       7.3013086699     1.6766130846    -0.3765554401
    9      C       7.3763702017     0.4115386938     0.1820282261
   10      S       5.8824497938     0.0251407669     0.9258680211
   11      C      -4.7250454614    -0.5504712505     0.0968176860
   12      C      -5.0827804384    -1.8859631180     0.1783873915
   13      C      -6.4869020279    -2.0907921246     0.1757312049
   14      C      -7.2008922434    -0.9092510902     0.1150428836
   15      S      -6.1237522075     0.4351555363     0.0727682043
   16      C     -11.0178321831    -0.0693704113     0.0316009233
   17      C     -10.9091915386    -1.4385948899     0.0717748645
   18      C      -9.5480744642    -1.8577664885     0.1031690902
   19      C      -8.6477462838    -0.8016847128     0.0887882154
   20      S      -9.4903006029     0.6950939451     0.0317630404
   21      C      -1.0213719715    -0.1975228650    -0.2830635939
   22      C      -1.1560992655     1.1533885491     0.0299695277
   23      C      -0.0261467038     2.0067787823     0.1101941045
   24      C       1.2838846961     1.4767532286    -0.0730335158
   25      C       1.3807567912     0.1325917410    -0.4336021296
   26      C       0.2641112212    -0.7017152948    -0.5282885475
   27      C      -2.2871855335    -0.8566710881    -0.3133094361
   28      C      -3.3629825354    -0.0615769780     0.0098692761
   29      S      -2.8375350432     1.5416358041     0.2789797528
   30      C       2.6174200201     2.0450935488     0.0861144602
   31      C       3.6302723083     1.1301365597    -0.1321788491
   32      S       2.9973492115    -0.3343201845    -0.7387121998
   33      O      -0.2567946477     3.3230580495     0.4932885210
   34      C       0.4358112226     4.3118046600    -0.2649476806
   35      O       0.4624693824    -2.0078863881    -0.9650655055
   36      C       0.0098039346    -3.0122013783    -0.0587572285
   37      H      10.2370693984    -3.5880583581     0.1091839569
   38      H      11.7194239911    -1.4198666257    -0.1065881395
   39      H      10.2297792008     0.7664311340    -0.0422243991
   40      H       5.6613718958     3.0659194634    -0.9818691214
   41      H       8.1458752091     2.1848529878    -0.8281074611
   42      H      -4.3732976924    -2.7029055708     0.2218384775
   43      H      -6.9398858373    -3.0734584584     0.2123154409
   44      H     -11.9223723679     0.5218817237     0.0018910962
   45      H     -11.7597528176    -2.1093082970     0.0783903578
   46      H      -9.2543098648    -2.8996311984     0.1355401526
   47      H      -2.3948871842    -1.9046176474    -0.5503607679
   48      H       2.8136376339     3.0530187990     0.4202543109
   49      H      -0.2428163866     5.1542836533    -0.4329267078
   50      H       0.7831768402     3.9603824668    -1.2425615214
   51      H       1.2758734732     4.6887888989     0.3264650312
   52      H       0.7951493158    -3.7667180529     0.0447030493
   53      H      -0.8601142697    -3.5097617504    -0.4996509782
   54      H      -0.2412896425    -2.6360002226     0.9390637332
 ----------------------------------------------------------------
 Molecular Point Group                 C1    NOp =  1
 Largest Abelian Subgroup              C1    NOp =  1
 Nuclear Repulsion Energy =        4388.27805483 hartrees
 There are      149 alpha and      149 beta electrons
 Requested basis set is 6-311G(d,p)
 There are 294 shells and 804 basis functions

 Total QAlloc Memory Limit   8000 MB
 Mega-Array Size       188 MB
 MEM_STATIC part       192 MB
 A cutoff of  1.0D-11 yielded  15045 shell pairs
 There are    119491 function pairs (    129756 Cartesian)
 Smallest overlap matrix eigenvalue = 9.89E-05

 Scale SEOQF with 1.000000e-02/1.000000e-01/1.000000e-01

 Standard Electronic Orientation quadrupole field applied
 Nucleus-field energy     =     0.0000000989 hartrees
 Guess from superposition of atomic densities
 Warning:  Energy on first SCF cycle will be non-variational
 SAD guess density has 298.000000 electrons

 -----------------------------------------------------------------------
  General SCF calculation program by
  Eric Jon Sundstrom, Paul Horn, Yuezhi Mao, Dmitri Zuev, Alec White,
  David Stuck, Shaama M.S., Shane Yost, Joonho Lee, David Small,
  Daniel Levine, Susi Lehtola, Hugh Burton, Evgeny Epifanovsky,
  Bang C. Huynh
 -----------------------------------------------------------------------
 Exchange:     0.2220 Hartree-Fock + 1.0000 wB97X-D + LR-HF
 Correlation:  1.0000 wB97X-D
 Using SG-2 standard quadrature grid
 Dispersion:   Grimme D
 using 24 threads for integral computing
 -------------------------------------------------------
 OpenMP Integral computing Module                
 Release: version 1.0, May 2013, Q-Chem Inc. Pittsburgh 
 -------------------------------------------------------
 using 24 threads for integral computing
 -------------------------------------------------------
 OpenMP Integral computing Module                
 Release: version 1.0, May 2013, Q-Chem Inc. Pittsburgh 
 -------------------------------------------------------
 A restricted SCF calculation will be
 performed using DIIS
 SCF converges when DIIS error is below 1.0e-08
 ---------------------------------------
  Cycle       Energy         DIIS error
 ---------------------------------------
    1   -3629.6352605449      2.58e-02  
    2   -3616.8515753408      1.77e-03  
    3   -3616.9050984827      1.70e-03  
    4   -3617.1147520987      2.93e-04  
    5   -3617.1214705517      1.06e-04  
    6   -3617.1223400884      4.56e-05  
    7   -3617.1225138672      1.06e-05  
    8   -3617.1225280695      5.20e-06  
    9   -3617.1225325064      1.94e-06  
   10   -3617.1225332454      8.27e-07  
   11   -3617.1225333679      3.98e-07  
   12   -3617.1225333919      1.24e-07  
   13   -3617.1225333941      4.90e-08  
   14   -3617.1225333946      1.86e-08  
   15   -3617.1225333941      6.16e-09  Convergence criterion met
 ---------------------------------------
 SCF time:   CPU 1746.14s  wall 81.00s 
 SCF   energy in the final basis set =    -3617.1225333941
 Total energy in the final basis set =    -3617.1225333941
 
 --------------------------------------------------------------
 
                    Orbital Energies (a.u.)
 --------------------------------------------------------------
 
 Alpha MOs
 -- Occupied --
-89.0514 -89.0474 -89.0462 -89.0434 -89.0392 -89.0334 -19.2740 -19.2695
-10.3640 -10.3527 -10.3395 -10.3391 -10.3379 -10.3363 -10.3357 -10.3353
-10.3351 -10.3348 -10.3337 -10.3316 -10.3267 -10.3207 -10.3192 -10.3192
-10.3116 -10.3051 -10.3046 -10.3040 -10.3018 -10.3011 -10.2998 -10.2990
-10.2985 -10.2982 -10.2980 -10.2956  -8.0979  -8.0939  -8.0926  -8.0907
 -8.0858  -8.0810  -6.0466  -6.0428  -6.0425  -6.0413  -6.0395  -6.0393
 -6.0387  -6.0373  -6.0357  -6.0357  -6.0349  -6.0345  -6.0319  -6.0309
 -6.0300  -6.0266  -6.0260  -6.0218  -1.1629  -1.1598  -1.0222  -1.0182
 -1.0094  -1.0007  -0.9900  -0.9845  -0.9294  -0.8912  -0.8786  -0.8758
 -0.8565  -0.8529  -0.8474  -0.8448  -0.8397  -0.8358  -0.8210  -0.8169
 -0.7998  -0.7906  -0.7586  -0.7378  -0.7065  -0.6971  -0.6879  -0.6793
 -0.6773  -0.6622  -0.6580  -0.6403  -0.6335  -0.6295  -0.6257  -0.6244
 -0.6120  -0.6029  -0.5967  -0.5916  -0.5666  -0.5638  -0.5603  -0.5536
 -0.5502  -0.5390  -0.5289  -0.5183  -0.5165  -0.5116  -0.5100  -0.5078
 -0.5053  -0.4983  -0.4968  -0.4937  -0.4916  -0.4870  -0.4834  -0.4805
 -0.4767  -0.4728  -0.4677  -0.4633  -0.4607  -0.4595  -0.4481  -0.4435
 -0.4418  -0.4407  -0.4324  -0.4287  -0.4245  -0.4200  -0.4071  -0.3922
 -0.3750  -0.3631  -0.3554  -0.3480  -0.3447  -0.3377  -0.3363  -0.3349
 -0.3305  -0.3190  -0.2802  -0.2754  -0.2501
 -- Virtual --
 -0.0219  -0.0019   0.0306   0.0560   0.0590   0.0629   0.0681   0.0772
  0.0933   0.0986   0.1003   0.1027   0.1054   0.1149   0.1193   0.1243
  0.1274   0.1274   0.1341   0.1379   0.1385   0.1407   0.1450   0.1479
  0.1507   0.1560   0.1594   0.1622   0.1641   0.1667   0.1740   0.1767
  0.1807   0.1818   0.1841   0.1883   0.1917   0.1967   0.2074   0.2129
  0.2138   0.2176   0.2229   0.2271   0.2327   0.2347   0.2374   0.2467
  0.2480   0.2485   0.2537   0.2629   0.2656   0.2696   0.2764   0.2819
  0.2871   0.2903   0.2956   0.3060   0.3063   0.3115   0.3160   0.3212
  0.3259   0.3347   0.3373   0.3424   0.3461   0.3487   0.3597   0.3725
  0.3734   0.3752   0.3795   0.3887   0.3914   0.3953   0.4053   0.4068
  0.4104   0.4139   0.4214   0.4239   0.4286   0.4474   0.4496   0.4529
  0.4599   0.4639   0.4651   0.4679   0.4706   0.4717   0.4749   0.4772
  0.4781   0.4827   0.4855   0.4888   0.4907   0.4917   0.4938   0.4983
  0.5013   0.5032   0.5056   0.5066   0.5112   0.5123   0.5173   0.5192
  0.5208   0.5253   0.5259   0.5312   0.5367   0.5412   0.5432   0.5512
  0.5539   0.5566   0.5586   0.5637   0.5684   0.5712   0.5799   0.5847
  0.5874   0.5930   0.5955   0.6024   0.6050   0.6100   0.6141   0.6161
  0.6186   0.6243   0.6262   0.6327   0.6390   0.6412   0.6432   0.6446
  0.6533   0.6577   0.6595   0.6699   0.6706   0.6786   0.6833   0.6865
  0.6875   0.6922   0.7029   0.7041   0.7062   0.7068   0.7102   0.7129
  0.7146   0.7221   0.7279   0.7338   0.7375   0.7406   0.7497   0.7527
  0.7552   0.7652   0.7704   0.7738   0.7767   0.7775   0.7832   0.7883
  0.7915   0.7961   0.7998   0.8016   0.8068   0.8105   0.8118   0.8160
  0.8191   0.8260   0.8307   0.8337   0.8373   0.8413   0.8481   0.8486
  0.8569   0.8625   0.8655   0.8674   0.8743   0.8788   0.8835   0.8876
  0.8965   0.9017   0.9069   0.9089   0.9112   0.9115   0.9170   0.9192
  0.9270   0.9284   0.9320   0.9364   0.9417   0.9466   0.9526   0.9558
  0.9589   0.9600   0.9657   0.9677   0.9777   0.9836   0.9876   0.9935
  0.9946   1.0022   1.0040   1.0122   1.0154   1.0188   1.0257   1.0272
  1.0316   1.0374   1.0426   1.0471   1.0502   1.0594   1.0694   1.0722
  1.0803   1.0809   1.0948   1.0975   1.1003   1.1028   1.1076   1.1114
  1.1275   1.1302   1.1386   1.1440   1.1546   1.1614   1.1666   1.1700
  1.1744   1.1808   1.1913   1.1980   1.2031   1.2044   1.2107   1.2258
  1.2341   1.2372   1.2491   1.2612   1.2774   1.2882   1.3057   1.3148
  1.3204   1.3256   1.3320   1.3391   1.3483   1.3551   1.3640   1.3671
  1.3707   1.3772   1.3817   1.3857   1.3892   1.4032   1.4128   1.4221
  1.4299   1.4344   1.4403   1.4522   1.4662   1.4706   1.4840   1.4997
  1.5093   1.5151   1.5191   1.5475   1.5526   1.5610   1.5628   1.5673
  1.5684   1.5733   1.5790   1.5841   1.5897   1.5929   1.6010   1.6081
  1.6161   1.6202   1.6228   1.6247   1.6253   1.6311   1.6334   1.6399
  1.6428   1.6461   1.6477   1.6575   1.6590   1.6665   1.6713   1.6768
  1.6849   1.6869   1.6932   1.6955   1.6976   1.7062   1.7092   1.7185
  1.7257   1.7343   1.7372   1.7404   1.7448   1.7555   1.7578   1.7666
  1.7716   1.7784   1.7812   1.7825   1.7879   1.7942   1.7999   1.8033
  1.8075   1.8169   1.8269   1.8317   1.8330   1.8382   1.8420   1.8504
  1.8526   1.8588   1.8619   1.8663   1.8727   1.8787   1.8820   1.8974
  1.9019   1.9104   1.9171   1.9200   1.9209   1.9315   1.9367   1.9407
  1.9491   1.9574   1.9650   1.9756   1.9788   1.9867   1.9902   1.9925
  1.9961   2.0011   2.0108   2.0123   2.0154   2.0224   2.0311   2.0426
  2.0459   2.0528   2.0560   2.0699   2.0731   2.0806   2.0939   2.1011
  2.1068   2.1087   2.1182   2.1270   2.1318   2.1413   2.1444   2.1611
  2.1627   2.1702   2.1773   2.1823   2.1854   2.1911   2.1945   2.2010
  2.2055   2.2103   2.2151   2.2281   2.2384   2.2447   2.2514   2.2780
  2.2816   2.2873   2.3002   2.3031   2.3116   2.3192   2.3201   2.3345
  2.3374   2.3466   2.3564   2.3660   2.3818   2.3835   2.3876   2.4080
  2.4132   2.4217   2.4281   2.4390   2.4500   2.4516   2.4767   2.4962
  2.5110   2.5182   2.5196   2.5271   2.5514   2.5524   2.5611   2.5655
  2.5695   2.5800   2.6018   2.6051   2.6210   2.6325   2.6378   2.6592
  2.6614   2.6775   2.6847   2.6901   2.6913   2.6989   2.7085   2.7097
  2.7145   2.7202   2.7236   2.7271   2.7292   2.7338   2.7376   2.7395
  2.7444   2.7507   2.7554   2.7645   2.7793   2.7911   2.7968   2.8067
  2.8085   2.8180   2.8215   2.8325   2.8399   2.8516   2.8619   2.8711
  2.8777   2.8863   2.8922   2.8934   2.9010   2.9278   2.9393   2.9784
  2.9847   2.9914   3.0003   3.0166   3.0228   3.0286   3.0355   3.0398
  3.0603   3.0681   3.0710   3.0835   3.0910   3.1000   3.1331   3.1569
  3.1577   3.1619   3.1809   3.1929   3.2003   3.2092   3.2135   3.2291
  3.2304   3.2539   3.2627   3.2719   3.2838   3.2967   3.3048   3.3125
  3.3230   3.3269   3.3362   3.3442   3.3504   3.3552   3.3954   3.4059
  3.4094   3.4110   3.4214   3.4325   3.4536   3.4754   3.4825   3.4992
  3.5117   3.5358   3.5523   3.5541   3.5636   3.6509   3.6716   3.6842
  3.6995   3.7772   3.8033   3.8474   3.8516   3.8718   3.8750   3.8867
  3.8919   3.9479   3.9653   4.0145   4.0573   4.0806   4.0872   4.1121
  4.1170   4.2066   4.2218   4.2543   4.2860   4.3069   4.3279   4.4189
  4.5378   4.6158   4.6968   4.8166   4.9605   5.0832   5.1048   5.3459
  5.3642   5.8090   5.8536   7.8958   7.9120   7.9485   7.9649   7.9727
  8.0021  17.3196  17.3336  17.3385  17.3553  17.3612  17.3666  17.5368
 17.5409  17.5710  17.5877  17.5892  17.6161  17.6316  17.6457  17.6626
 17.6761  17.6888  17.6998  23.4571  23.5928  23.6238  23.7443  23.7760
 23.8550  23.8628  23.9188  23.9273  23.9409  23.9659  23.9733  23.9903
 23.9913  24.0085  24.1085  24.1663  24.1694  24.1772  24.1853  24.2012
 24.2134  24.2216  24.2363  24.2411  24.2536  24.2607  24.2682  50.0702
 50.0799 189.1254 189.1416 189.1805 189.1962 189.2109 189.2399
 --------------------------------------------------------------
 
          Ground-State Mulliken Net Atomic Charges

     Atom                 Charge (a.u.)
  ----------------------------------------
      1 C                    -0.305721
      2 C                    -0.106517
      3 C                    -0.038192
      4 C                    -0.273332
      5 S                     0.325937
      6 C                    -0.257411
      7 C                    -0.030768
      8 C                    -0.048977
      9 C                    -0.197111
     10 S                     0.320186
     11 C                    -0.255448
     12 C                    -0.043306
     13 C                    -0.037389
     14 C                    -0.225479
     15 S                     0.368567
     16 C                    -0.308195
     17 C                    -0.104859
     18 C                    -0.031086
     19 C                    -0.270156
     20 S                     0.317956
     21 C                     0.021680
     22 C                    -0.202329
     23 C                     0.140041
     24 C                     0.040767
     25 C                    -0.215822
     26 C                     0.123784
     27 C                     0.024691
     28 C                    -0.242655
     29 S                     0.306583
     30 C                     0.003825
     31 C                    -0.255481
     32 S                     0.321812
     33 O                    -0.377906
     34 C                    -0.162444
     35 O                    -0.386633
     36 C                    -0.164974
     37 H                     0.150453
     38 H                     0.119767
     39 H                     0.117809
     40 H                     0.119797
     41 H                     0.117587
     42 H                     0.112333
     43 H                     0.114526
     44 H                     0.148181
     45 H                     0.118864
     46 H                     0.114212
     47 H                     0.116930
     48 H                     0.115459
     49 H                     0.134706
     50 H                     0.129157
     51 H                     0.117274
     52 H                     0.134875
     53 H                     0.115323
     54 H                     0.129108
  ----------------------------------------
  Sum of atomic charges =     0.000000

 -----------------------------------------------------------------
                    Cartesian Multipole Moments
 -----------------------------------------------------------------
    Charge (ESU x 10^10)
                -0.0000
    Dipole Moment (Debye)
         X       0.6414      Y      -0.9108      Z      -0.3092
       Tot       1.1561
    Quadrupole Moments (Debye-Ang)
        XX    -189.4829     XY      16.2614     YY    -218.1226
        XZ      -3.5214     YZ      -8.4743     ZZ    -262.8584
    Octopole Moments (Debye-Ang^2)
       XXX     -12.9029    XXY     -95.8653    XYY      22.5300
       YYY      -4.0915    XXZ     -44.2549    XYZ     -14.4214
       YYZ     -13.4909    XZZ       9.7631    YZZ       9.7286
       ZZZ       0.2605
    Hexadecapole Moments (Debye-Ang^3)
      XXXX  -47087.6858   XXXY     -35.8693   XXYY   -9349.8030
      XYYY      33.2765   YYYY   -3845.8847   XXXZ    -427.1497
      XXYZ    -146.4754   XYYZ     -37.6020   YYYZ     -74.8536
      XXZZ  -10684.1879   XYZZ     -26.3324   YYZZ    -864.4299
      XZZZ      12.7114   YZZZ       4.5376   ZZZZ    -539.7419
 -----------------------------------------------------------------
 Calculating analytic gradient of the SCF energy
 Gradient of SCF Energy
            1           2           3           4           5           6
    1  -0.0120903   0.0108658   0.0026100  -0.0188566   0.0083653  -0.0140398
    2  -0.0075165   0.0018031   0.0105378  -0.0069323   0.0027428  -0.0295415
    3   0.0002137   0.0005297  -0.0002229  -0.0036943   0.0003791  -0.0027894
            7           8           9          10          11          12
    1  -0.0080770   0.0105868  -0.0097722   0.0079357  -0.0020158   0.0075313
    2   0.0191610   0.0048081  -0.0238877   0.0276232   0.0179501  -0.0054603
    3   0.0000995   0.0032443  -0.0035769   0.0103070  -0.0031414   0.0023225
           13          14          15          16          17          18
    1  -0.0079781  -0.0040937   0.0062354   0.0067845  -0.0084096  -0.0001416
    2  -0.0089011   0.0147267  -0.0126075   0.0117893  -0.0108733  -0.0082043
    3   0.0006298  -0.0016645   0.0026878  -0.0001223   0.0002543   0.0000242
           19          20          21          22          23          24
    1   0.0092107  -0.0011701  -0.0089226  -0.0214309   0.0064468   0.0099879
    2   0.0147540  -0.0080210   0.0099756  -0.0209884  -0.0117644  -0.0189984
    3  -0.0006260   0.0000111   0.0018852  -0.0020010  -0.0126354  -0.0020588
           25          26          27          28          29          30
    1   0.0244572  -0.0055976   0.0105651  -0.0236902   0.0009689  -0.0046447
    2   0.0161721   0.0162428   0.0063433   0.0249119  -0.0346421   0.0069577
    3   0.0068053   0.0140097  -0.0016466   0.0109968  -0.0100239  -0.0038110
           31          32          33          34          35          36
    1   0.0353153  -0.0061762  -0.0033934   0.0012937   0.0012567  -0.0009094
    2  -0.0351721   0.0378105   0.0181871  -0.0091755  -0.0161552   0.0099351
    3  -0.0065177   0.0022528   0.0159547  -0.0051756  -0.0165358   0.0056276
           37          38          39          40          41          42
    1   0.0000990   0.0010148   0.0010962   0.0008951   0.0014993  -0.0003605
    2  -0.0016846  -0.0010319   0.0000214   0.0017376   0.0024306  -0.0023171
    3  -0.0006630  -0.0001795  -0.0011544   0.0017667   0.0012563  -0.0007261
           43          44          45          46          47          48
    1   0.0006065  -0.0015234  -0.0014389  -0.0010871   0.0005673  -0.0001547
    2  -0.0018905   0.0000455  -0.0010002  -0.0015534  -0.0005194   0.0004734
    3  -0.0002646  -0.0000545   0.0000383  -0.0000079   0.0014169  -0.0025584
           49          50          51          52          53          54
    1   0.0016533   0.0007740  -0.0020119  -0.0010796   0.0012328  -0.0007899
    2   0.0033185   0.0038864   0.0003740  -0.0024342   0.0000837  -0.0035304
    3  -0.0016043  -0.0035706   0.0029207   0.0004895  -0.0028991   0.0038024
 Max gradient component =       3.781E-02
 RMS gradient           =       1.045E-02
 Gradient time:  CPU 367.86 s  wall 19.08 s
 Geometry Optimization Parameters
   NAtoms,    NIC,     NZ,  NCons,   NDum,   NFix, NCnnct, MaxDiis
       54     404       0       0       0       0       0       0


** GEOMETRY OPTIMIZATION IN DELOCALIZED INTERNAL COORDINATES **
   Searching for a Minimum

   Optimization Cycle:   1

                       Coordinates (Angstroms)
     ATOM                X               Y               Z
      1  C         9.8941901053   -2.5623342391    0.1164171945
      2  C        10.6425530272   -1.4144973644    0.0055320059
      3  C         9.8328629450   -0.2369222036    0.0423066774
      4  C         8.4860257362   -0.5168013749    0.1863533789
      5  S         8.2335031159   -2.2235077129    0.2746060397
      6  C         5.0513826490    1.2338166698    0.0336374625
      7  C         5.9479209463    2.1633252349   -0.4592492137
      8  C         7.3013086699    1.6766130846   -0.3765554401
      9  C         7.3763702017    0.4115386938    0.1820282261
     10  S         5.8824497938    0.0251407669    0.9258680211
     11  C        -4.7250454614   -0.5504712505    0.0968176860
     12  C        -5.0827804384   -1.8859631180    0.1783873915
     13  C        -6.4869020279   -2.0907921246    0.1757312049
     14  C        -7.2008922434   -0.9092510902    0.1150428836
     15  S        -6.1237522075    0.4351555363    0.0727682043
     16  C       -11.0178321831   -0.0693704113    0.0316009233
     17  C       -10.9091915386   -1.4385948899    0.0717748645
     18  C        -9.5480744642   -1.8577664885    0.1031690902
     19  C        -8.6477462838   -0.8016847128    0.0887882154
     20  S        -9.4903006029    0.6950939451    0.0317630404
     21  C        -1.0213719715   -0.1975228650   -0.2830635939
     22  C        -1.1560992655    1.1533885491    0.0299695277
     23  C        -0.0261467038    2.0067787823    0.1101941045
     24  C         1.2838846961    1.4767532286   -0.0730335158
     25  C         1.3807567912    0.1325917410   -0.4336021296
     26  C         0.2641112212   -0.7017152948   -0.5282885475
     27  C        -2.2871855335   -0.8566710881   -0.3133094361
     28  C        -3.3629825354   -0.0615769780    0.0098692761
     29  S        -2.8375350432    1.5416358041    0.2789797528
     30  C         2.6174200201    2.0450935488    0.0861144602
     31  C         3.6302723083    1.1301365597   -0.1321788491
     32  S         2.9973492115   -0.3343201845   -0.7387121998
     33  O        -0.2567946477    3.3230580495    0.4932885210
     34  C         0.4358112226    4.3118046600   -0.2649476806
     35  O         0.4624693824   -2.0078863881   -0.9650655055
     36  C         0.0098039346   -3.0122013783   -0.0587572285
     37  H        10.2370693984   -3.5880583581    0.1091839569
     38  H        11.7194239911   -1.4198666257   -0.1065881395
     39  H        10.2297792008    0.7664311340   -0.0422243991
     40  H         5.6613718958    3.0659194634   -0.9818691214
     41  H         8.1458752091    2.1848529878   -0.8281074611
     42  H        -4.3732976924   -2.7029055708    0.2218384775
     43  H        -6.9398858373   -3.0734584584    0.2123154409
     44  H       -11.9223723679    0.5218817237    0.0018910962
     45  H       -11.7597528176   -2.1093082970    0.0783903578
     46  H        -9.2543098648   -2.8996311984    0.1355401526
     47  H        -2.3948871842   -1.9046176474   -0.5503607679
     48  H         2.8136376339    3.0530187990    0.4202543109
     49  H        -0.2428163866    5.1542836533   -0.4329267078
     50  H         0.7831768402    3.9603824668   -1.2425615214
     51  H         1.2758734732    4.6887888989    0.3264650312
     52  H         0.7951493158   -3.7667180529    0.0447030493
     53  H        -0.8601142697   -3.5097617504   -0.4996509782
     54  H        -0.2412896425   -2.6360002226    0.9390637332
   Point Group: c1    Number of degrees of freedom:   156


   Energy is  -3617.122533394


 Attempting to generate delocalized internal coordinates
 Initial Hessian constructed with Jon Baker's OPTIMIZE code

156 Hessian modes will be used to form the next step
  Hessian Eigenvalues:
     0.012138    0.012263    0.015649    0.015825    0.016155    0.016212
     0.016219    0.016342    0.016490    0.016773    0.016859    0.016947
     0.017742    0.017843    0.017846    0.017885    0.017912    0.018181
     0.018232    0.018306    0.018306    0.018823    0.019307    0.019461
     0.019978    0.020088    0.020614    0.020681    0.020756    0.020781
     0.020894    0.021279    0.021486    0.021564    0.021661    0.021787
     0.021822    0.021852    0.022034    0.022053    0.022103    0.022165
     0.022780    0.022817    0.023156    0.023321    0.023413    0.097417
     0.097491    0.104771    0.104806    0.156837    0.158368    0.159265
     0.159952    0.159964    0.159987    0.159993    0.159997    0.159999
     0.160000    0.160000    0.160000    0.160000    0.160000    0.160000
     0.160000    0.160000    0.160000    0.221337    0.221346    0.223398
     0.227013    0.235721    0.236355    0.237993    0.238080    0.244661
     0.245513    0.248350    0.248877    0.249302    0.249369    0.249453
     0.249800    0.249801    0.249907    0.249907    0.249935    0.249936
     0.249996    0.250000    0.250000    0.250000    0.250000    0.250000
     0.304857    0.319263    0.324025    0.327203    0.328054    0.331724
     0.335067    0.336037    0.337243    0.338421    0.339132    0.341795
     0.341966    0.342574    0.342671    0.343153    0.343580    0.344531
     0.354911    0.356087    0.356377    0.356475    0.356694    0.356741
     0.357161    0.357984    0.358089    0.358686    0.360131    0.360176
     0.365337    0.381032    0.382769    0.384540    0.386700    0.393096
     0.398620    0.399644    0.402895    0.403490    0.406241    0.413561
     0.414939    0.416327    0.427256    0.442746    0.444305    0.450203
     0.452640    0.453738    0.456588    0.458142    0.470630    0.472905
     0.474263    0.480427    0.481086    0.483702    0.489324    0.490379

 Minimum search - taking simple RFO step
 Searching for Lamda that Minimizes Along All modes
 Value Taken    Lamda =  -0.05145411
 Calculated Step too Large.  Step scaled by  0.477600
 Step Taken.  Stepsize is  0.300000

                             Maximum     Tolerance    Cnvgd?
         Gradient           0.045378      0.000300      NO
         Displacement       0.096062      0.001200      NO
         Energy change     *********      0.000001      NO


 New Cartesian Coordinates Obtained by Inverse Iteration

 Displacement from previous Coordinates is:  3.685133
 ----------------------------------------------------------------
             Standard Nuclear Orientation (Angstroms)
    I     Atom           X                Y                Z
 ----------------------------------------------------------------
    1      C      10.2621053349    -2.2230142027     0.2307888926
    2      C      10.8685324013    -0.9986547703     0.1313206693
    3      C       9.9272068236     0.0694674188     0.1081947714
    4      C       8.6213846881    -0.3632175472     0.1928349975
    5      S       8.5626445481    -2.0883740948     0.2982373539
    6      C       5.0118390094     1.0773614549    -0.0499785463
    7      C       5.8510295647     2.0369472371    -0.5712362479
    8      C       7.2304994152     1.6627047221    -0.4742760412
    9      C       7.4124855309     0.4326129105     0.1218540649
   10      S       5.9255397787    -0.1179191446     0.7948826222
   11      C      -4.7514220752    -0.6140086922     0.0813573852
   12      C      -5.1820640618    -1.9239395975     0.1389263587
   13      C      -6.5916677035    -2.0473290966     0.1469503185
   14      C      -7.2402547571    -0.8311257368     0.1157954604
   15      S      -6.0936804640     0.4562270459     0.0808510617
   16      C     -10.9914684639     0.2686588337     0.0972766615
   17      C     -10.9708379493    -1.1005112880     0.1129090672
   18      C      -9.6460538899    -1.6149963736     0.1196414919
   19      C      -8.6786381493    -0.6291117821     0.1108438381
   20      S      -9.4141590278     0.9286145432     0.0906539158
   21      C      -1.0485336106    -0.3733707561    -0.3037576554
   22      C      -1.1559229898     0.9830024524     0.0448594989
   23      C      -0.0327679945     1.8176714126     0.1374933275
   24      C       1.2531534414     1.2718617459    -0.0737446196
   25      C       1.3366266576    -0.0770241481    -0.4635784522
   26      C       0.2211483881    -0.9004350766    -0.5688360912
   27      C      -2.3274503703    -1.0056443901    -0.3446550211
   28      C      -3.3687498671    -0.1827545206     0.0000297332
   29      S      -2.8190042600     1.4176975431     0.3205711648
   30      C       2.5790787952     1.8337630023     0.0831456629
   31      C       3.5808769093     0.9326072585    -0.1782192536
   32      S       2.9564620331    -0.5607422935    -0.7719397488
   33      O      -0.2524628049     3.1193207178     0.5443069113
   34      C       0.4231268685     4.1328167973    -0.1925746761
   35      O       0.4128563327    -2.1947554675    -1.0215630727
   36      C      -0.0157198872    -3.2266613731    -0.1365752520
   37      H      10.7274509883    -3.1976781527     0.2629284718
   38      H      11.9416451764    -0.8727580741     0.0726258068
   39      H      10.2041764772     1.1123334582     0.0279543308
   40      H       5.5015291716     2.9145088791    -1.0977092799
   41      H       8.0359986929     2.2347319872    -0.9181800614
   42      H      -4.5170866180    -2.7770308978     0.1653845533
   43      H      -7.1007989479    -3.0014246210     0.1735081100
   44      H     -11.8533920449     0.9197726606     0.0894861107
   45      H     -11.8638465535    -1.7116577118     0.1193165198
   46      H      -9.4230681022    -2.6739456910     0.1306713340
   47      H      -2.4673094929    -2.0425507789    -0.6112418039
   48      H       2.7807188235     2.8361099901     0.4312934233
   49      H      -0.2705107904     4.9674678079    -0.3276923943
   50      H       0.7508357468     3.7948748089    -1.1801062359
   51      H       1.2761871609     4.5024135966     0.3845287703
   52      H       0.7837645492    -3.9687679991    -0.0621469662
   53      H      -0.8921983667    -3.7260978033    -0.5618391877
   54      H      -0.2473903432    -2.8607395609     0.8680292695
 ----------------------------------------------------------------
 Molecular Point Group                 C1    NOp =  1
 Largest Abelian Subgroup              C1    NOp =  1
 Nuclear Repulsion Energy =        4382.66473337 hartrees
 There are      149 alpha and      149 beta electrons
 Applying Cartesian multipole field
    Component          Value
    ---------          -----
     (2,0,0)        1.00000E-12
     (0,2,0)        2.00000E-11
     (0,0,2)       -3.00000E-11
 Nucleus-field energy     =     0.0000000948 hartrees
 Requested basis set is 6-311G(d,p)
 There are 294 shells and 804 basis functions
 A cutoff of  1.0D-11 yielded  15008 shell pairs
 There are    119148 function pairs (    129422 Cartesian)
 Smallest overlap matrix eigenvalue = 9.65E-05
 Guess MOs from SCF MO coefficient file

 -----------------------------------------------------------------------
  General SCF calculation program by
  Eric Jon Sundstrom, Paul Horn, Yuezhi Mao, Dmitri Zuev, Alec White,
  David Stuck, Shaama M.S., Shane Yost, Joonho Lee, David Small,
  Daniel Levine, Susi Lehtola, Hugh Burton, Evgeny Epifanovsky,
  Bang C. Huynh
 -----------------------------------------------------------------------
 Exchange:     0.2220 Hartree-Fock + 1.0000 wB97X-D + LR-HF
 Correlation:  1.0000 wB97X-D
 Using SG-2 standard quadrature grid
 Dispersion:   Grimme D
 using 24 threads for integral computing
 -------------------------------------------------------
 OpenMP Integral computing Module                
 Release: version 1.0, May 2013, Q-Chem Inc. Pittsburgh 
 -------------------------------------------------------
 using 24 threads for integral computing
 -------------------------------------------------------
 OpenMP Integral computing Module                
 Release: version 1.0, May 2013, Q-Chem Inc. Pittsburgh 
 -------------------------------------------------------
 A restricted SCF calculation will be
 performed using DIIS
 SCF converges when DIIS error is below 1.0e-08
 ---------------------------------------
  Cycle       Energy         DIIS error
 ---------------------------------------
    1   -3617.0857385578      6.71e-04  
    2   -3617.1397193683      1.26e-04  
    3   -3617.1424170112      6.04e-05  
    4   -3617.1426927993      2.59e-05  
    5   -3617.1427598860      8.33e-06  
    6   -3617.1427666503      2.88e-06  
    7   -3617.1427676532      1.31e-06  
    8   -3617.1427678394      4.23e-07  
    9   -3617.1427678616      1.42e-07  
   10   -3617.1427678650      6.19e-08  
   11   -3617.1427678659      2.67e-08  
   12   -3617.1427678662      8.83e-09  Convergence criterion met
 ---------------------------------------
 SCF time:   CPU 1376.91s  wall 63.00s 
 SCF   energy in the final basis set =    -3617.1427678662
 Total energy in the final basis set =    -3617.1427678662
 
 --------------------------------------------------------------
 
                    Orbital Energies (a.u.)
 --------------------------------------------------------------
 
 Alpha MOs
 -- Occupied --
-89.0501 -89.0465 -89.0457 -89.0445 -89.0392 -89.0349 -19.2750 -19.2702
-10.3605 -10.3520 -10.3387 -10.3381 -10.3376 -10.3363 -10.3358 -10.3356
-10.3354 -10.3348 -10.3333 -10.3324 -10.3249 -10.3213 -10.3184 -10.3184
-10.3099 -10.3059 -10.3024 -10.3023 -10.3004 -10.2994 -10.2987 -10.2975
-10.2970 -10.2967 -10.2965 -10.2960  -8.0966  -8.0930  -8.0921  -8.0913
 -8.0855  -8.0819  -6.0453  -6.0416  -6.0416  -6.0408  -6.0400  -6.0382
 -6.0378  -6.0368  -6.0363  -6.0347  -6.0347  -6.0339  -6.0326  -6.0309
 -6.0307  -6.0270  -6.0263  -6.0227  -1.1671  -1.1626  -1.0207  -1.0166
 -1.0087  -0.9994  -0.9897  -0.9832  -0.9285  -0.8905  -0.8824  -0.8755
 -0.8566  -0.8529  -0.8491  -0.8441  -0.8395  -0.8354  -0.8219  -0.8179
 -0.8015  -0.7900  -0.7612  -0.7367  -0.7051  -0.6970  -0.6869  -0.6804
 -0.6775  -0.6621  -0.6577  -0.6421  -0.6336  -0.6298  -0.6256  -0.6244
 -0.6103  -0.6058  -0.5986  -0.5906  -0.5667  -0.5648  -0.5596  -0.5562
 -0.5505  -0.5409  -0.5297  -0.5174  -0.5158  -0.5109  -0.5088  -0.5072
 -0.5041  -0.4995  -0.4971  -0.4932  -0.4913  -0.4875  -0.4832  -0.4811
 -0.4750  -0.4725  -0.4668  -0.4621  -0.4598  -0.4592  -0.4485  -0.4443
 -0.4416  -0.4411  -0.4340  -0.4300  -0.4244  -0.4211  -0.4067  -0.3932
 -0.3752  -0.3647  -0.3557  -0.3499  -0.3448  -0.3387  -0.3364  -0.3357
 -0.3327  -0.3173  -0.2813  -0.2756  -0.2514
 -- Virtual --
 -0.0197   0.0009   0.0316   0.0572   0.0590   0.0623   0.0710   0.0781
  0.0939   0.1000   0.1012   0.1026   0.1060   0.1135   0.1189   0.1241
  0.1267   0.1276   0.1341   0.1378   0.1389   0.1409   0.1452   0.1481
  0.1502   0.1573   0.1608   0.1634   0.1642   0.1669   0.1745   0.1771
  0.1796   0.1823   0.1843   0.1895   0.1919   0.1952   0.2079   0.2133
  0.2173   0.2181   0.2241   0.2287   0.2312   0.2354   0.2391   0.2471
  0.2482   0.2501   0.2519   0.2624   0.2651   0.2703   0.2777   0.2825
  0.2882   0.2927   0.2966   0.3067   0.3072   0.3123   0.3161   0.3215
  0.3257   0.3344   0.3371   0.3437   0.3455   0.3489   0.3597   0.3738
  0.3755   0.3758   0.3807   0.3896   0.3921   0.3963   0.4055   0.4075
  0.4117   0.4138   0.4213   0.4234   0.4287   0.4447   0.4483   0.4562
  0.4593   0.4649   0.4670   0.4681   0.4714   0.4732   0.4758   0.4773
  0.4782   0.4848   0.4855   0.4891   0.4909   0.4924   0.4944   0.4982
  0.5016   0.5029   0.5069   0.5069   0.5130   0.5140   0.5187   0.5205
  0.5234   0.5244   0.5289   0.5323   0.5375   0.5425   0.5438   0.5517
  0.5522   0.5587   0.5600   0.5647   0.5689   0.5741   0.5804   0.5860
  0.5889   0.5931   0.5962   0.6034   0.6053   0.6095   0.6116   0.6166
  0.6187   0.6248   0.6272   0.6332   0.6395   0.6430   0.6447   0.6458
  0.6531   0.6577   0.6597   0.6702   0.6731   0.6793   0.6824   0.6873
  0.6908   0.6929   0.7027   0.7039   0.7043   0.7084   0.7113   0.7135
  0.7182   0.7230   0.7268   0.7350   0.7382   0.7429   0.7525   0.7539
  0.7564   0.7663   0.7706   0.7775   0.7778   0.7803   0.7845   0.7892
  0.7931   0.8004   0.8007   0.8032   0.8088   0.8113   0.8141   0.8199
  0.8215   0.8270   0.8299   0.8361   0.8388   0.8438   0.8481   0.8489
  0.8585   0.8632   0.8680   0.8697   0.8795   0.8801   0.8824   0.8896
  0.8978   0.9020   0.9070   0.9088   0.9116   0.9139   0.9179   0.9212
  0.9278   0.9287   0.9317   0.9359   0.9417   0.9444   0.9500   0.9550
  0.9590   0.9616   0.9664   0.9695   0.9795   0.9836   0.9879   0.9944
  0.9948   0.9999   1.0014   1.0126   1.0150   1.0185   1.0226   1.0281
  1.0298   1.0342   1.0393   1.0425   1.0483   1.0562   1.0649   1.0719
  1.0742   1.0816   1.0967   1.0992   1.1004   1.1018   1.1085   1.1118
  1.1260   1.1300   1.1376   1.1434   1.1539   1.1635   1.1673   1.1707
  1.1742   1.1864   1.1942   1.1983   1.2014   1.2078   1.2096   1.2271
  1.2306   1.2419   1.2531   1.2638   1.2774   1.2870   1.3077   1.3184
  1.3223   1.3277   1.3287   1.3367   1.3490   1.3568   1.3650   1.3683
  1.3712   1.3758   1.3814   1.3860   1.3887   1.4012   1.4151   1.4241
  1.4309   1.4334   1.4395   1.4514   1.4670   1.4741   1.4866   1.5011
  1.5105   1.5138   1.5207   1.5466   1.5507   1.5624   1.5640   1.5673
  1.5701   1.5750   1.5814   1.5866   1.5931   1.5944   1.6028   1.6104
  1.6173   1.6210   1.6243   1.6258   1.6275   1.6314   1.6351   1.6405
  1.6435   1.6475   1.6512   1.6584   1.6609   1.6684   1.6711   1.6773
  1.6855   1.6874   1.6910   1.6963   1.7020   1.7058   1.7098   1.7175
  1.7250   1.7340   1.7357   1.7427   1.7440   1.7532   1.7605   1.7672
  1.7718   1.7790   1.7826   1.7850   1.7870   1.7943   1.8007   1.8048
  1.8064   1.8177   1.8296   1.8331   1.8360   1.8403   1.8442   1.8527
  1.8548   1.8630   1.8642   1.8685   1.8742   1.8815   1.8843   1.8990
  1.9046   1.9107   1.9176   1.9197   1.9221   1.9308   1.9378   1.9452
  1.9488   1.9582   1.9654   1.9780   1.9797   1.9856   1.9908   1.9945
  1.9974   2.0035   2.0124   2.0133   2.0175   2.0227   2.0319   2.0418
  2.0476   2.0528   2.0547   2.0717   2.0754   2.0800   2.0950   2.0989
  2.1052   2.1099   2.1180   2.1292   2.1328   2.1452   2.1488   2.1573
  2.1674   2.1701   2.1766   2.1852   2.1882   2.1913   2.1962   2.2022
  2.2052   2.2122   2.2175   2.2303   2.2446   2.2470   2.2502   2.2779
  2.2838   2.2903   2.3030   2.3071   2.3163   2.3196   2.3233   2.3387
  2.3409   2.3500   2.3581   2.3699   2.3846   2.3864   2.3922   2.4095
  2.4140   2.4252   2.4314   2.4437   2.4533   2.4610   2.4813   2.5012
  2.5124   2.5178   2.5242   2.5337   2.5516   2.5531   2.5574   2.5643
  2.5747   2.5812   2.6075   2.6095   2.6245   2.6370   2.6433   2.6553
  2.6587   2.6769   2.6857   2.6897   2.6917   2.7015   2.7101   2.7121
  2.7182   2.7207   2.7253   2.7275   2.7318   2.7354   2.7400   2.7403
  2.7446   2.7486   2.7545   2.7650   2.7790   2.7912   2.7978   2.8088
  2.8112   2.8194   2.8225   2.8295   2.8364   2.8491   2.8636   2.8738
  2.8797   2.8898   2.8933   2.8953   2.9051   2.9279   2.9511   2.9805
  2.9858   2.9912   2.9988   3.0190   3.0216   3.0295   3.0330   3.0437
  3.0690   3.0705   3.0733   3.0851   3.0966   3.1031   3.1457   3.1640
  3.1653   3.1667   3.1838   3.1957   3.2059   3.2125   3.2170   3.2291
  3.2326   3.2533   3.2662   3.2749   3.2825   3.3016   3.3108   3.3181
  3.3267   3.3318   3.3430   3.3490   3.3559   3.3592   3.3999   3.4095
  3.4158   3.4188   3.4260   3.4384   3.4592   3.4848   3.4870   3.5041
  3.5162   3.5405   3.5565   3.5585   3.5667   3.6529   3.6734   3.6869
  3.7138   3.7785   3.8101   3.8484   3.8557   3.8720   3.8759   3.8874
  3.8925   3.9480   3.9655   4.0063   4.0533   4.0832   4.0938   4.1141
  4.1179   4.2189   4.2288   4.2549   4.2903   4.3091   4.3347   4.4229
  4.5419   4.6195   4.7097   4.8245   4.9695   5.0885   5.1079   5.3494
  5.3688   5.8219   5.8680   7.8945   7.9078   7.9456   7.9544   7.9640
  7.9929  17.3208  17.3332  17.3396  17.3548  17.3563  17.3643  17.5350
 17.5399  17.5709  17.5883  17.5903  17.6126  17.6302  17.6413  17.6587
 17.6728  17.6851  17.6950  23.4622  23.5964  23.6287  23.7535  23.7797
 23.8559  23.8658  23.9208  23.9267  23.9335  23.9672  23.9715  23.9906
 23.9922  24.0338  24.1426  24.1561  24.1811  24.1953  24.2044  24.2153
 24.2240  24.2445  24.2480  24.2529  24.2668  24.2785  24.2845  50.0743
 50.0827 189.1233 189.1372 189.1773 189.1894 189.1951 189.2266
 --------------------------------------------------------------
 
          Ground-State Mulliken Net Atomic Charges

     Atom                 Charge (a.u.)
  ----------------------------------------
      1 C                    -0.303773
      2 C                    -0.105588
      3 C                    -0.037967
      4 C                    -0.272056
      5 S                     0.320145
      6 C                    -0.253183
      7 C                    -0.034360
      8 C                    -0.046514
      9 C                    -0.197527
     10 S                     0.321530
     11 C                    -0.258606
     12 C                    -0.039492
     13 C                    -0.037708
     14 C                    -0.225338
     15 S                     0.366459
     16 C                    -0.305440
     17 C                    -0.106383
     18 C                    -0.027115
     19 C                    -0.271020
     20 S                     0.313843
     21 C                     0.018664
     22 C                    -0.209438
     23 C                     0.151092
     24 C                     0.031806
     25 C                    -0.214203
     26 C                     0.132488
     27 C                     0.029040
     28 C                    -0.245552
     29 S                     0.305581
     30 C                     0.008792
     31 C                    -0.257198
     32 S                     0.313669
     33 O                    -0.377117
     34 C                    -0.162391
     35 O                    -0.386390
     36 C                    -0.161260
     37 H                     0.149483
     38 H                     0.119048
     39 H                     0.117268
     40 H                     0.118324
     41 H                     0.117000
     42 H                     0.111624
     43 H                     0.113533
     44 H                     0.147633
     45 H                     0.117922
     46 H                     0.113822
     47 H                     0.118286
     48 H                     0.116769
     49 H                     0.136209
     50 H                     0.128990
     51 H                     0.117510
     52 H                     0.135605
     53 H                     0.115879
     54 H                     0.127607
  ----------------------------------------
  Sum of atomic charges =     0.000000

 -----------------------------------------------------------------
                    Cartesian Multipole Moments
 -----------------------------------------------------------------
    Charge (ESU x 10^10)
                 0.0000
    Dipole Moment (Debye)
         X       0.5173      Y      -0.6297      Z      -0.2621
       Tot       0.8560
    Quadrupole Moments (Debye-Ang)
        XX    -189.6569     XY      16.7878     YY    -218.0044
        XZ      -2.6047     YZ      -8.1267     ZZ    -263.1509
    Octopole Moments (Debye-Ang^2)
       XXX     -12.7975    XXY     -68.9882    XYY       8.7291
       YYY       9.0990    XXZ     -25.4118    XYZ     -19.6136
       YYZ      -9.5947    XZZ       4.1746    YZZ      13.3875
       ZZZ       2.5512
    Hexadecapole Moments (Debye-Ang^3)
      XXXX  -47691.6399   XXXY      63.2133   XXYY   -9495.8642
      XYYY     191.9633   YYYY   -3567.9079   XXXZ    -264.8744
      XXYZ    -177.1417   XYYZ      -9.4085   YYYZ     -81.9744
      XXZZ  -10869.7318   XYZZ      30.4973   YYZZ    -806.9447
      XZZZ      49.0685   YZZZ     -17.2824   ZZZZ    -550.3448
 -----------------------------------------------------------------
 Calculating analytic gradient of the SCF energy
 Gradient of SCF Energy
            1           2           3           4           5           6
    1  -0.0084691   0.0064739   0.0016775  -0.0116371   0.0055583  -0.0107949
    2  -0.0052103   0.0031883   0.0057533  -0.0063425   0.0028003  -0.0181710
    3  -0.0002171   0.0006592  -0.0002920  -0.0033094   0.0005043  -0.0005239
            7           8           9          10          11          12
    1  -0.0063439   0.0077051  -0.0013672   0.0033696  -0.0016224   0.0046704
    2   0.0115768   0.0033969  -0.0165057   0.0182967   0.0123012  -0.0046543
    3  -0.0008466   0.0015221  -0.0022266   0.0091000  -0.0020203   0.0015333
           13          14          15          16          17          18
    1  -0.0044485  -0.0015831   0.0036380   0.0057662  -0.0049391  -0.0006590
    2  -0.0057802   0.0109663  -0.0096735   0.0078634  -0.0068201  -0.0051320
    3   0.0003343  -0.0010521   0.0019759  -0.0000556   0.0001083  -0.0000736
           19          20          21          22          23          24
    1   0.0061206  -0.0022208  -0.0059858  -0.0136968   0.0041503   0.0054356
    2   0.0098296  -0.0065340   0.0040706  -0.0089241  -0.0102132  -0.0092595
    3  -0.0004118  -0.0000557   0.0003728  -0.0000515  -0.0102503   0.0004514
           25          26          27          28          29          30
    1   0.0162416  -0.0034568   0.0080794  -0.0137262   0.0001738  -0.0045978
    2   0.0063160   0.0122841   0.0014670   0.0187908  -0.0209343   0.0054834
    3   0.0034531   0.0110486  -0.0020753   0.0085027  -0.0072203  -0.0013897
           31          32          33          34          35          36
    1   0.0210798  -0.0049593  -0.0027138   0.0016318   0.0017019  -0.0008743
    2  -0.0227937   0.0232308   0.0127260  -0.0065125  -0.0120002   0.0063644
    3  -0.0059003  -0.0003291   0.0109982  -0.0034966  -0.0115937   0.0036849
           37          38          39          40          41          42
    1   0.0001765   0.0006063   0.0009709   0.0008583   0.0006449  -0.0006004
    2  -0.0009556  -0.0006725  -0.0001296   0.0011615   0.0018828  -0.0013774
    3  -0.0005119  -0.0000372  -0.0008801   0.0014225   0.0011708  -0.0005413
           43          44          45          46          47          48
    1   0.0006573  -0.0009787  -0.0006879  -0.0009084   0.0004054  -0.0003410
    2  -0.0010953   0.0000225  -0.0003504  -0.0008438  -0.0002513   0.0007269
    3  -0.0002508   0.0000256   0.0000435  -0.0000170   0.0011780  -0.0020292
           49          50          51          52          53          54
    1   0.0008806   0.0001400  -0.0013303  -0.0006128   0.0009283  -0.0001869
    2   0.0022956   0.0024696   0.0005598  -0.0017870  -0.0005621  -0.0023384
    3  -0.0010104  -0.0019782   0.0019769   0.0003221  -0.0017725   0.0020316
 Max gradient component =       2.323E-02
 RMS gradient           =       6.799E-03
 Gradient time:  CPU 366.84 s  wall 19.02 s
 Geometry Optimization Parameters
   NAtoms,    NIC,     NZ,  NCons,   NDum,   NFix, NCnnct, MaxDiis
       54     404       0       0       0       0       0       0

 Cartesian Hessian Update
 Hessian updated using BFGS update


** GEOMETRY OPTIMIZATION IN DELOCALIZED INTERNAL COORDINATES **
   Searching for a Minimum

   Optimization Cycle:   2

                       Coordinates (Angstroms)
     ATOM                X               Y               Z
      1  C        10.2621053349   -2.2230142027    0.2307888926
      2  C        10.8685324013   -0.9986547703    0.1313206693
      3  C         9.9272068236    0.0694674188    0.1081947714
      4  C         8.6213846881   -0.3632175472    0.1928349975
      5  S         8.5626445481   -2.0883740948    0.2982373539
      6  C         5.0118390094    1.0773614549   -0.0499785463
      7  C         5.8510295647    2.0369472371   -0.5712362479
      8  C         7.2304994152    1.6627047221   -0.4742760412
      9  C         7.4124855309    0.4326129105    0.1218540649
     10  S         5.9255397787   -0.1179191446    0.7948826222
     11  C        -4.7514220752   -0.6140086922    0.0813573852
     12  C        -5.1820640618   -1.9239395975    0.1389263587
     13  C        -6.5916677035   -2.0473290966    0.1469503185
     14  C        -7.2402547571   -0.8311257368    0.1157954604
     15  S        -6.0936804640    0.4562270459    0.0808510617
     16  C       -10.9914684639    0.2686588337    0.0972766615
     17  C       -10.9708379493   -1.1005112880    0.1129090672
     18  C        -9.6460538899   -1.6149963736    0.1196414919
     19  C        -8.6786381493   -0.6291117821    0.1108438381
     20  S        -9.4141590278    0.9286145432    0.0906539158
     21  C        -1.0485336106   -0.3733707561   -0.3037576554
     22  C        -1.1559229898    0.9830024524    0.0448594989
     23  C        -0.0327679945    1.8176714126    0.1374933275
     24  C         1.2531534414    1.2718617459   -0.0737446196
     25  C         1.3366266576   -0.0770241481   -0.4635784522
     26  C         0.2211483881   -0.9004350766   -0.5688360912
     27  C        -2.3274503703   -1.0056443901   -0.3446550211
     28  C        -3.3687498671   -0.1827545206    0.0000297332
     29  S        -2.8190042600    1.4176975431    0.3205711648
     30  C         2.5790787952    1.8337630023    0.0831456629
     31  C         3.5808769093    0.9326072585   -0.1782192536
     32  S         2.9564620331   -0.5607422935   -0.7719397488
     33  O        -0.2524628049    3.1193207178    0.5443069113
     34  C         0.4231268685    4.1328167973   -0.1925746761
     35  O         0.4128563327   -2.1947554675   -1.0215630727
     36  C        -0.0157198872   -3.2266613731   -0.1365752520
     37  H        10.7274509883   -3.1976781527    0.2629284718
     38  H        11.9416451764   -0.8727580741    0.0726258068
     39  H        10.2041764772    1.1123334582    0.0279543308
     40  H         5.5015291716    2.9145088791   -1.0977092799
     41  H         8.0359986929    2.2347319872   -0.9181800614
     42  H        -4.5170866180   -2.7770308978    0.1653845533
     43  H        -7.1007989479   -3.0014246210    0.1735081100
     44  H       -11.8533920449    0.9197726606    0.0894861107
     45  H       -11.8638465535   -1.7116577118    0.1193165198
     46  H        -9.4230681022   -2.6739456910    0.1306713340
     47  H        -2.4673094929   -2.0425507789   -0.6112418039
     48  H         2.7807188235    2.8361099901    0.4312934233
     49  H        -0.2705107904    4.9674678079   -0.3276923943
     50  H         0.7508357468    3.7948748089   -1.1801062359
     51  H         1.2761871609    4.5024135966    0.3845287703
     52  H         0.7837645492   -3.9687679991   -0.0621469662
     53  H        -0.8921983667   -3.7260978033   -0.5618391877
     54  H        -0.2473903432   -2.8607395609    0.8680292695
   Point Group: c1    Number of degrees of freedom:   156


   Energy is  -3617.142767866

 Hessian updated using BFGS update

150 Hessian modes will be used to form the next step
  Hessian Eigenvalues:
     0.012136    0.012262    0.015649    0.015819    0.016152    0.016213
     0.016218    0.016344    0.016490    0.016747    0.016940    0.016943
     0.017740    0.017828    0.017846    0.017912    0.018180    0.018184
     0.018300    0.018305    0.018823    0.019223    0.019373    0.019513
     0.019974    0.020606    0.020681    0.020740    0.020781    0.020815
     0.021234    0.021337    0.021551    0.021654    0.021786    0.021822
     0.021851    0.022033    0.022052    0.022097    0.022158    0.022318
     0.022780    0.023155    0.023321    0.023413    0.028344    0.097460
     0.097468    0.104600    0.104788    0.156709    0.157632    0.158757
     0.159354    0.159952    0.159967    0.159989    0.159994    0.159998
     0.159999    0.160000    0.160622    0.211794    0.221437    0.221608
     0.223693    0.227076    0.236068    0.237924    0.238091    0.238552
     0.245259    0.245683    0.248390    0.248986    0.249316    0.249410
     0.249613    0.249805    0.249822    0.249917    0.249922    0.249957
     0.249985    0.249997    0.250000    0.250000    0.250000    0.263733
     0.304917    0.312170    0.320063    0.324641    0.327571    0.328719
     0.333137    0.335691    0.337146    0.337485    0.339269    0.341849
     0.342027    0.342578    0.342673    0.343156    0.343585    0.344372
     0.354911    0.356118    0.356379    0.356491    0.356697    0.356766
     0.357166    0.357996    0.358089    0.358678    0.360138    0.360183
     0.366055    0.379554    0.381264    0.382880    0.386555    0.393060
     0.397329    0.400040    0.402466    0.404989    0.407240    0.414296
     0.414929    0.416306    0.427365    0.436243    0.443559    0.450243
     0.452430    0.453686    0.456203    0.458179    0.471417    0.472062
     0.476638    0.479119    0.480905    0.486127    0.489716    0.490026

 Minimum search - taking simple RFO step
 Searching for Lamda that Minimizes Along All modes
 Value Taken    Lamda =  -0.02605117
 Calculated Step too Large.  Step scaled by  0.600415
 Step Taken.  Stepsize is  0.300000

                             Maximum     Tolerance    Cnvgd?
         Gradient           0.032055      0.000300      NO
         Displacement       0.116170      0.001200      NO
         Energy change     -0.020234      0.000001      NO


 New Cartesian Coordinates Obtained by Inverse Iteration

 Displacement from previous Coordinates is:  4.317365
 ----------------------------------------------------------------
             Standard Nuclear Orientation (Angstroms)
    I     Atom           X                Y                Z
 ----------------------------------------------------------------
    1      C      10.6260861319    -1.7804661316     0.3260277053
    2      C      11.0516768168    -0.4862307317     0.2437981443
    3      C       9.9739949963     0.4356643653     0.1609855356
    4      C       8.7429445247    -0.1713654449     0.1784666221
    5      S       8.9177633240    -1.8915620480     0.2952580980
    6      C       4.9936665670     0.8889017999    -0.1388223098
    7      C       5.7523054554     1.8954604232    -0.6765191449
    8      C       7.1477609327     1.6506223794    -0.5738394862
    9      C       7.4419883162     0.4607756363     0.0434063665
   10      S       6.0016609645    -0.2727531990     0.6564683558
   11      C      -4.7765893396    -0.7127649356     0.0634042714
   12      C      -5.3015922414    -1.9830750833     0.0988786294
   13      C      -6.7144428017    -2.0038384642     0.1161173465
   14      C      -7.2759272460    -0.7493059972     0.1090834480
   15      S      -6.0415616400     0.4590758577     0.0783578860
   16      C     -10.9166793739     0.6775974122     0.1430392804
   17      C     -11.0132859291    -0.6836518685     0.1408193533
   18      C      -9.7430681835    -1.3166939086     0.1283555808
   19      C      -8.6941854470    -0.4275867331     0.1223907037
   20      S      -9.2831831136     1.1975593084     0.1302245387
   21      C      -1.0637730176    -0.5933540803    -0.3130910613
   22      C      -1.1396194525     0.7609705476     0.0738009535
   23      C      -0.0196628030     1.5784178527     0.1815676140
   24      C       1.2439747448     1.0181473088    -0.0638015896
   25      C       1.3096974992    -0.3310514788    -0.4810561077
   26      C       0.1900071030    -1.1406299508    -0.5993566687
   27      C      -2.3595281308    -1.1975118792    -0.3683702894
   28      C      -3.3700802590    -0.3549168268    -0.0067566959
   29      S      -2.7862283004     1.2360007551     0.3756195869
   30      C       2.5665777892     1.5715951209     0.0864571194
   31      C       3.5573624379     0.6902010948    -0.2194055461
   32      S       2.9364599846    -0.8308893463    -0.7933624094
   33      O      -0.2268547518     2.8631280168     0.6101496118
   34      C       0.4213919747     3.9042849033    -0.1093141292
   35      O       0.3600062546    -2.4213067265    -1.0630572510
   36      C      -0.0789587492    -3.4634780182    -0.1982041607
   37      H      11.2245642953    -2.6762756552     0.3978372891
   38      H      12.0960498778    -0.2046301651     0.2438765166
   39      H      10.1010433776     1.5079203870     0.0921787931
   40      H       5.3250811086     2.7417689789    -1.1973755194
   41      H       7.9018698884     2.2942084641    -1.0078390652
   42      H      -4.6964624625    -2.8793292659     0.1129583964
   43      H      -7.2940251933    -2.9165867964     0.1354809423
   44      H     -11.7164822558     1.4025337280     0.1511565736
   45      H     -11.9563716764    -1.2134069134     0.1473735380
   46      H      -9.6135660140    -2.3906159346     0.1232775829
   47      H      -2.5291034834    -2.2202341792    -0.6712040438
   48      H       2.7763361306     2.5669283664     0.4491555223
   49      H      -0.2878140580     4.7297141190    -0.2005202818
   50      H       0.7214681036     3.5850602475    -1.1109150718
   51      H       1.2928958364     4.2637315305     0.4456516766
   52      H       0.7135203483    -4.2130739514    -0.1404624363
   53      H      -0.9709312303    -3.9392322612    -0.6175379842
   54      H      -0.2957339084    -3.0971439865     0.8087889927
 ----------------------------------------------------------------
 Molecular Point Group                 C1    NOp =  1
 Largest Abelian Subgroup              C1    NOp =  1
 Nuclear Repulsion Energy =        4377.62894437 hartrees
 There are      149 alpha and      149 beta electrons
 Applying Cartesian multipole field
    Component          Value
    ---------          -----
     (2,0,0)        1.00000E-12
     (0,2,0)        2.00000E-11
     (0,0,2)       -3.00000E-11
 Nucleus-field energy     =     0.0000000912 hartrees
 Requested basis set is 6-311G(d,p)
 There are 294 shells and 804 basis functions
 A cutoff of  1.0D-11 yielded  14983 shell pairs
 There are    119097 function pairs (    129341 Cartesian)
 Smallest overlap matrix eigenvalue = 9.53E-05
 Guess MOs from SCF MO coefficient file

 -----------------------------------------------------------------------
  General SCF calculation program by
  Eric Jon Sundstrom, Paul Horn, Yuezhi Mao, Dmitri Zuev, Alec White,
  David Stuck, Shaama M.S., Shane Yost, Joonho Lee, David Small,
  Daniel Levine, Susi Lehtola, Hugh Burton, Evgeny Epifanovsky,
  Bang C. Huynh
 -----------------------------------------------------------------------
 Exchange:     0.2220 Hartree-Fock + 1.0000 wB97X-D + LR-HF
 Correlation:  1.0000 wB97X-D
 Using SG-2 standard quadrature grid
 Dispersion:   Grimme D
 using 24 threads for integral computing
 -------------------------------------------------------
 OpenMP Integral computing Module                
 Release: version 1.0, May 2013, Q-Chem Inc. Pittsburgh 
 -------------------------------------------------------
 using 24 threads for integral computing
 -------------------------------------------------------
 OpenMP Integral computing Module                
 Release: version 1.0, May 2013, Q-Chem Inc. Pittsburgh 
 -------------------------------------------------------
 A restricted SCF calculation will be
 performed using DIIS
 SCF converges when DIIS error is below 1.0e-08
 ---------------------------------------
  Cycle       Energy         DIIS error
 ---------------------------------------
    1   -3617.0769486565      7.91e-04  
    2   -3617.1508397463      1.44e-04  
    3   -3617.1543812484      6.25e-05  
    4   -3617.1546725720      2.98e-05  
    5   -3617.1547584483      7.89e-06  
    6   -3617.1547647740      3.01e-06  
    7   -3617.1547658601      1.37e-06  
    8   -3617.1547660614      4.57e-07  
    9   -3617.1547660867      1.52e-07  
   10   -3617.1547660903      6.70e-08  
   11   -3617.1547660913      2.84e-08  
   12   -3617.1547660915      1.01e-08  
   13   -3617.1547660922      4.25e-09  Convergence criterion met
 ---------------------------------------
 SCF time:   CPU 1465.14s  wall 69.00s 
 SCF   energy in the final basis set =    -3617.1547660922
 Total energy in the final basis set =    -3617.1547660922
 
 --------------------------------------------------------------
 
                    Orbital Energies (a.u.)
 --------------------------------------------------------------
 
 Alpha MOs
 -- Occupied --
-89.0487 -89.0458 -89.0457 -89.0453 -89.0382 -89.0359 -19.2756 -19.2711
-10.3575 -10.3516 -10.3389 -10.3384 -10.3375 -10.3368 -10.3356 -10.3355
-10.3352 -10.3345 -10.3328 -10.3325 -10.3231 -10.3220 -10.3181 -10.3179
-10.3084 -10.3061 -10.3001 -10.3000 -10.2997 -10.2980 -10.2974 -10.2968
-10.2962 -10.2961 -10.2957 -10.2955  -8.0952  -8.0921  -8.0921  -8.0915
 -8.0844  -8.0823  -6.0439  -6.0409  -6.0407  -6.0403  -6.0401  -6.0371
 -6.0369  -6.0367  -6.0363  -6.0339  -6.0335  -6.0335  -6.0333  -6.0314
 -6.0296  -6.0275  -6.0251  -6.0231  -1.1716  -1.1675  -1.0194  -1.0155
 -1.0080  -0.9980  -0.9893  -0.9821  -0.9279  -0.8905  -0.8844  -0.8751
 -0.8565  -0.8536  -0.8497  -0.8435  -0.8390  -0.8353  -0.8228  -0.8193
 -0.8034  -0.7901  -0.7631  -0.7359  -0.7042  -0.6970  -0.6858  -0.6817
 -0.6777  -0.6620  -0.6574  -0.6435  -0.6337  -0.6307  -0.6254  -0.6243
 -0.6096  -0.6083  -0.6004  -0.5897  -0.5687  -0.5645  -0.5596  -0.5589
 -0.5509  -0.5432  -0.5308  -0.5169  -0.5154  -0.5104  -0.5079  -0.5066
 -0.5033  -0.5006  -0.4976  -0.4929  -0.4911  -0.4880  -0.4826  -0.4818
 -0.4736  -0.4715  -0.4662  -0.4613  -0.4593  -0.4581  -0.4486  -0.4448
 -0.4417  -0.4415  -0.4344  -0.4313  -0.4248  -0.4208  -0.4062  -0.3936
 -0.3756  -0.3661  -0.3554  -0.3510  -0.3447  -0.3401  -0.3368  -0.3357
 -0.3342  -0.3163  -0.2823  -0.2758  -0.2529
 -- Virtual --
 -0.0180   0.0030   0.0321   0.0576   0.0586   0.0628   0.0721   0.0784
  0.0944   0.1007   0.1019   0.1039   0.1068   0.1115   0.1184   0.1236
  0.1262   0.1273   0.1341   0.1375   0.1396   0.1409   0.1452   0.1476
  0.1498   0.1579   0.1620   0.1633   0.1651   0.1681   0.1748   0.1773
  0.1793   0.1826   0.1847   0.1904   0.1908   0.1942   0.2069   0.2138
  0.2182   0.2189   0.2257   0.2296   0.2316   0.2372   0.2405   0.2457
  0.2480   0.2514   0.2519   0.2626   0.2639   0.2717   0.2786   0.2843
  0.2905   0.2944   0.2982   0.3072   0.3080   0.3123   0.3159   0.3218
  0.3261   0.3329   0.3383   0.3450   0.3453   0.3498   0.3601   0.3738
  0.3755   0.3772   0.3819   0.3889   0.3928   0.3975   0.4058   0.4079
  0.4115   0.4136   0.4207   0.4238   0.4283   0.4435   0.4467   0.4581
  0.4593   0.4652   0.4668   0.4693   0.4727   0.4747   0.4764   0.4774
  0.4786   0.4851   0.4861   0.4892   0.4920   0.4930   0.4949   0.4982
  0.5017   0.5024   0.5069   0.5081   0.5141   0.5149   0.5192   0.5216
  0.5239   0.5271   0.5324   0.5335   0.5391   0.5424   0.5458   0.5503
  0.5519   0.5593   0.5617   0.5664   0.5699   0.5768   0.5816   0.5860
  0.5898   0.5934   0.5995   0.6033   0.6057   0.6096   0.6106   0.6171
  0.6193   0.6252   0.6279   0.6335   0.6396   0.6423   0.6459   0.6485
  0.6527   0.6563   0.6607   0.6697   0.6746   0.6795   0.6809   0.6875
  0.6936   0.6947   0.7008   0.7024   0.7042   0.7084   0.7132   0.7151
  0.7216   0.7241   0.7256   0.7363   0.7386   0.7447   0.7539   0.7552
  0.7579   0.7659   0.7685   0.7787   0.7793   0.7836   0.7867   0.7898
  0.7948   0.8008   0.8035   0.8060   0.8101   0.8123   0.8162   0.8226
  0.8234   0.8277   0.8309   0.8381   0.8397   0.8457   0.8489   0.8504
  0.8605   0.8636   0.8693   0.8717   0.8783   0.8820   0.8857   0.8942
  0.8987   0.9011   0.9070   0.9103   0.9122   0.9141   0.9179   0.9225
  0.9280   0.9295   0.9317   0.9364   0.9393   0.9438   0.9471   0.9565
  0.9592   0.9646   0.9682   0.9717   0.9823   0.9846   0.9888   0.9934
  0.9967   0.9981   1.0010   1.0123   1.0147   1.0173   1.0205   1.0243
  1.0306   1.0350   1.0388   1.0406   1.0455   1.0563   1.0575   1.0679
  1.0760   1.0837   1.0965   1.0992   1.1010   1.1032   1.1101   1.1120
  1.1265   1.1290   1.1364   1.1432   1.1513   1.1652   1.1677   1.1706
  1.1766   1.1903   1.1964   1.1974   1.2004   1.2082   1.2098   1.2253
  1.2307   1.2451   1.2560   1.2678   1.2805   1.2883   1.3071   1.3211
  1.3240   1.3268   1.3299   1.3363   1.3500   1.3589   1.3660   1.3693
  1.3712   1.3738   1.3800   1.3853   1.3895   1.4008   1.4179   1.4263
  1.4306   1.4318   1.4397   1.4515   1.4679   1.4801   1.4926   1.5010
  1.5101   1.5158   1.5225   1.5475   1.5491   1.5615   1.5650   1.5657
  1.5722   1.5759   1.5828   1.5895   1.5940   1.5957   1.6033   1.6115
  1.6183   1.6207   1.6237   1.6265   1.6292   1.6318   1.6370   1.6399
  1.6424   1.6506   1.6535   1.6589   1.6625   1.6701   1.6717   1.6777
  1.6854   1.6869   1.6888   1.6970   1.7046   1.7061   1.7144   1.7162
  1.7250   1.7316   1.7359   1.7446   1.7452   1.7526   1.7633   1.7661
  1.7726   1.7805   1.7848   1.7864   1.7887   1.7941   1.8003   1.8046
  1.8074   1.8187   1.8310   1.8337   1.8362   1.8433   1.8470   1.8537
  1.8571   1.8649   1.8675   1.8704   1.8747   1.8851   1.8878   1.9019
  1.9071   1.9101   1.9175   1.9195   1.9231   1.9305   1.9384   1.9459
  1.9510   1.9584   1.9697   1.9766   1.9830   1.9833   1.9907   1.9958
  1.9987   2.0037   2.0131   2.0149   2.0180   2.0234   2.0310   2.0385
  2.0500   2.0515   2.0528   2.0700   2.0763   2.0811   2.0944   2.0962
  2.1047   2.1116   2.1192   2.1299   2.1349   2.1479   2.1525   2.1569
  2.1699   2.1731   2.1772   2.1863   2.1907   2.1917   2.1962   2.2017
  2.2079   2.2155   2.2209   2.2330   2.2462   2.2496   2.2533   2.2779
  2.2860   2.2927   2.3055   2.3113   2.3188   2.3215   2.3300   2.3420
  2.3457   2.3522   2.3621   2.3735   2.3879   2.3907   2.3965   2.4099
  2.4142   2.4287   2.4358   2.4473   2.4561   2.4691   2.4875   2.5080
  2.5147   2.5176   2.5277   2.5382   2.5522   2.5540   2.5563   2.5650
  2.5781   2.5829   2.6132   2.6147   2.6277   2.6422   2.6491   2.6520
  2.6565   2.6741   2.6842   2.6919   2.6929   2.7040   2.7108   2.7145
  2.7197   2.7221   2.7257   2.7298   2.7327   2.7367   2.7402   2.7418
  2.7464   2.7482   2.7554   2.7665   2.7786   2.7908   2.7968   2.8115
  2.8167   2.8182   2.8207   2.8295   2.8355   2.8501   2.8658   2.8761
  2.8826   2.8929   2.8945   2.8971   2.9096   2.9288   2.9635   2.9827
  2.9870   2.9910   2.9971   3.0200   3.0216   3.0288   3.0337   3.0477
  3.0693   3.0739   3.0785   3.0894   3.0996   3.1081   3.1575   3.1673
  3.1710   3.1756   3.1868   3.1987   3.2106   3.2146   3.2196   3.2294
  3.2367   3.2521   3.2693   3.2765   3.2854   3.3035   3.3161   3.3236
  3.3312   3.3374   3.3463   3.3561   3.3604   3.3645   3.4057   3.4124
  3.4203   3.4241   3.4301   3.4489   3.4657   3.4933   3.4949   3.5095
  3.5206   3.5442   3.5603   3.5619   3.5701   3.6567   3.6772   3.6887
  3.7317   3.7768   3.8142   3.8473   3.8587   3.8718   3.8798   3.8892
  3.8936   3.9456   3.9651   3.9995   4.0510   4.0844   4.1017   4.1148
  4.1176   4.2289   4.2394   4.2534   4.2947   4.3093   4.3406   4.4258
  4.5462   4.6217   4.7226   4.8325   4.9767   5.0959   5.1121   5.3554
  5.3774   5.8364   5.8854   7.8911   7.9026   7.9399   7.9427   7.9562
  7.9833  17.3221  17.3327  17.3411  17.3518  17.3563  17.3629  17.5325
 17.5371  17.5710  17.5868  17.5914  17.6077  17.6279  17.6377  17.6541
 17.6679  17.6808  17.6909  23.4682  23.5994  23.6332  23.7599  23.7827
 23.8539  23.8658  23.9201  23.9253  23.9307  23.9646  23.9720  23.9910
 23.9929  24.0518  24.1481  24.1760  24.1969  24.2150  24.2230  24.2303
 24.2369  24.2622  24.2728  24.2804  24.2832  24.2952  24.2995  50.0785
 50.0866 189.1190 189.1316 189.1712 189.1754 189.1860 189.2147
 --------------------------------------------------------------
 
          Ground-State Mulliken Net Atomic Charges

     Atom                 Charge (a.u.)
  ----------------------------------------
      1 C                    -0.301015
      2 C                    -0.104656
      3 C                    -0.038836
      4 C                    -0.270357
      5 S                     0.311952
      6 C                    -0.251188
      7 C                    -0.035764
      8 C                    -0.044031
      9 C                    -0.197918
     10 S                     0.325304
     11 C                    -0.261923
     12 C                    -0.035649
     13 C                    -0.037786
     14 C                    -0.225599
     15 S                     0.363860
     16 C                    -0.302342
     17 C                    -0.107812
     18 C                    -0.023497
     19 C                    -0.270315
     20 S                     0.308380
     21 C                     0.011978
     22 C                    -0.216729
     23 C                     0.164224
     24 C                     0.022796
     25 C                    -0.215131
     26 C                     0.143832
     27 C                     0.035333
     28 C                    -0.248398
     29 S                     0.300529
     30 C                     0.010587
     31 C                    -0.255235
     32 S                     0.302503
     33 O                    -0.375517
     34 C                    -0.161678
     35 O                    -0.382047
     36 C                    -0.160874
     37 H                     0.148779
     38 H                     0.118343
     39 H                     0.116971
     40 H                     0.117206
     41 H                     0.116769
     42 H                     0.111285
     43 H                     0.112981
     44 H                     0.147364
     45 H                     0.117507
     46 H                     0.113671
     47 H                     0.118981
     48 H                     0.117944
     49 H                     0.137934
     50 H                     0.128379
     51 H                     0.117904
     52 H                     0.136832
     53 H                     0.116428
     54 H                     0.127742
  ----------------------------------------
  Sum of atomic charges =     0.000000

 -----------------------------------------------------------------
                    Cartesian Multipole Moments
 -----------------------------------------------------------------
    Charge (ESU x 10^10)
                -0.0000
    Dipole Moment (Debye)
         X       0.3294      Y      -0.3019      Z      -0.1961
       Tot       0.4880
    Quadrupole Moments (Debye-Ang)
        XX    -189.6738     XY      18.0353     YY    -217.9739
        XZ      -1.2264     YZ      -7.6140     ZZ    -263.3545
    Octopole Moments (Debye-Ang^2)
       XXX     -30.7560    XXY     -32.1484    XYY      -9.6432
       YYY      25.1587    XXZ      -3.5813    XYZ     -23.0640
       YYZ      -5.3638    XZZ      -3.2279    YZZ      18.1820
       ZZZ       6.4617
[...]

 Minimum search - taking simple RFO step
 Searching for Lamda that Minimizes Along All modes
 Value Taken    Lamda =  -0.00000035
 Step Taken.  Stepsize is  0.005727

                             Maximum     Tolerance    Cnvgd?
         Gradient           0.000031      0.000300     YES
         Displacement       0.003141      0.001200      NO
         Energy change     -0.000001      0.000001     YES

 Final energy is   -3617.16828065790     


 ******************************
 **  OPTIMIZATION CONVERGED  **
 ******************************

                       Coordinates (Angstroms)
     ATOM                X               Y               Z
      1  C        11.0300667212   -1.2169705366   -0.1937477829
      2  C        11.1453429435    0.0170263932    0.3678343355
      3  C         9.9069206241    0.7115761662    0.4190521143
      4  C         8.8684243252   -0.0020600690   -0.1134866989
      5  S         9.4153876203   -1.5466699882   -0.6864620216
      6  C         4.9943011465    0.5852263645   -0.3043153471
      7  C         5.6170450308    1.7704340075   -0.5868943795
      8  C         7.0298398336    1.6805868742   -0.5525642176
      9  C         7.4831390480    0.4269482910   -0.2448723199
     10  S         6.1578061926   -0.6583272421    0.0254942684
     11  C        -4.8002708656   -0.7404337527    0.1900569517
     12  C        -5.4231766720   -1.9261953965    0.4699499876
     13  C        -6.8359636236   -1.8362589900    0.4354622975
     14  C        -7.2891933947   -0.5818589525    0.1306437375
     15  S        -5.9637512725    0.5038872792   -0.1371591595
     16  C       -10.8359090106    1.0626070356    0.0812603827
     17  C       -10.9515010694   -0.1712040388   -0.4806707631
     18  C        -9.7131982836   -0.8658745890   -0.5325320794
     19  C        -8.6744483267   -0.1525646581    0.0000217527
     20  S        -9.2210635329    1.3918787310    0.5737112208
     21  C        -1.0845811518   -0.8169467050   -0.1836050852
     22  C        -1.0925063676    0.5217950937    0.2712548994
     23  C         0.0664200417    1.2698145400    0.4029478432
     24  C         1.2786328626    0.6619561878    0.0694600465
     25  C         1.2865598016   -0.6768934437   -0.3854304188
     26  C         0.1277330101   -1.4249511209   -0.5168752533
     27  C        -2.4098133661   -1.3594863163   -0.2685468041
     28  C        -3.3687772478   -0.4887057295    0.1330204670
     29  S        -2.7100645409    1.0609517238    0.6402968444
     30  C         2.6039002592    1.2044073553    0.1543350128
     31  C         3.5627714562    0.3335446162   -0.2472087106
     32  S         2.9040529047   -1.2160573869   -0.7546414598
     33  O         0.0174594965    2.5562466631    0.8614262226
     34  C         0.0119313497    3.5332650008   -0.1739368278
     35  O         0.1770362159   -2.7114897682   -0.9749178290
     36  C         0.1788379801   -3.6881185426    0.0609353377
     37  H        11.8002181549   -1.9567210301   -0.3498529964
     38  H        12.0770146925    0.4143209763    0.7469932491
     39  H         9.7760554535    1.6927130456    0.8557869257
     40  H         5.0708343910    2.6660025791   -0.8512330092
     41  H         7.6988666767    2.4981960198   -0.7846727133
     42  H        -4.8771510231   -2.8224857996    0.7322393894
     43  H        -7.5050489541   -2.6542805536    0.6659296160
     44  H       -11.6059414494    1.8023734793    0.2378592163
     45  H       -11.8833264217   -0.5681635050   -0.8598035202
     46  H        -9.5824685154   -1.8467212836   -0.9699535027
     47  H        -2.6278168340   -2.3456127208   -0.6549346696
     48  H         2.8221403223    2.1905322674    0.5405634688
     49  H        -0.0492111407    4.5034315510    0.3170100987
     50  H        -0.8520157807    3.4003881978   -0.8334301633
     51  H         0.9305930666    3.4810658024   -0.7684942461
     52  H         0.2436564248   -4.6584029292   -0.4292839377
     53  H        -0.7427031162   -3.6369350289    0.6510953291
     54  H         1.0393576364   -3.5534795224    0.7244862235

Z-matrix Print:
$molecule
0 1
S 
C  1 1.744528
C  2 1.385636 1 126.055382
O  3 1.366568 2 120.670681 1 0.173260 0
C  3 1.396483 2 117.926984 1 179.378900 0
C  2 1.413927 1 111.461277 3 179.447565 0
C  6 1.396583 2 119.592977 1 -179.446401 0
O  7 1.366534 6 121.410852 2 -179.233758 0
C  7 1.385550 6 117.925888 2 -0.035049 0
C  4 1.423577 3 113.715820 2 -96.779642 0
H  10 1.089032 4 106.484015 3 178.854190 0
H  10 1.094985 4 110.966362 3 59.652747 0
H  10 1.095519 4 111.023995 3 -61.995597 0
C  8 1.423657 7 113.703700 6 -83.873929 0
H  14 1.089022 8 106.484345 7 -178.689155 0
H  14 1.094953 8 110.951275 7 -59.477622 0
H  14 1.095512 8 111.029471 7 62.157261 0
C  5 1.434500 3 128.551620 2 -178.057559 0
H  18 1.081316 5 123.535290 3 2.274484 0
C  18 1.356124 5 113.133370 3 179.678511 0
C  6 1.434505 2 111.836947 1 2.169497 0
H  21 1.081326 6 123.526198 2 175.908850 0
C  21 1.356144 6 113.133822 2 -1.490468 0
C  23 1.454577 21 126.612015 6 -178.793840 0
C  24 1.368350 23 127.299915 21 33.024856 0
H  25 1.081793 24 122.533405 23 2.988072 0
C  25 1.416067 24 113.213052 23 -179.546714 0
H  27 1.081642 25 124.327931 24 -177.532900 0
C  27 1.368156 25 113.213600 24 -0.060961 0
C  20 1.454607 18 126.609882 5 178.792299 0
C  30 1.368349 20 127.290714 18 -33.163249 0
H  31 1.081787 30 122.529264 20 -2.967044 0
C  31 1.416065 30 113.209367 20 179.586846 0
H  33 1.081645 31 124.328444 30 177.550460 0
C  33 1.368124 31 113.213295 30 0.045797 0
C  29 1.456121 27 127.260653 25 179.276696 0
C  36 1.368001 29 127.125329 27 -37.235853 0
H  37 1.081891 36 122.572752 29 -3.121200 0
C  37 1.420792 36 113.118865 29 178.491497 0
H  39 1.081488 37 123.965123 36 179.462476 0
C  39 1.360668 37 112.605353 36 0.427991 0
H  41 1.079225 39 128.379326 37 179.391031 0
C  35 1.456134 33 127.262527 31 -179.272155 0
C  43 1.367973 35 127.131197 33 37.346273 0
H  44 1.081893 43 122.575617 35 3.110479 0
C  44 1.420814 43 113.119412 35 -178.484366 0
H  46 1.081488 44 123.963591 43 -179.468355 0
C  46 1.360666 44 112.604318 43 -0.421337 0
H  48 1.079228 46 128.380069 44 -179.390319 0
S  41 1.720074 39 111.812607 37 -0.679381 0
S  48 1.720075 46 111.813578 44 0.671999 0
S  29 1.734174 27 110.808457 25 0.676714 0
S  35 1.734194 33 110.811272 31 -0.662198 0
S  9 1.744505 7 126.052844 6 -179.362209 0
$end

 
 --------------------------------------------------------------
 
                    Orbital Energies (a.u.)
 --------------------------------------------------------------
 
 Alpha MOs
 -- Occupied --
-89.0478 -89.0478 -89.0451 -89.0451 -89.0403 -89.0402 -19.2717 -19.2716
-10.3534 -10.3534 -10.3393 -10.3393 -10.3365 -10.3365 -10.3359 -10.3358
-10.3349 -10.3349 -10.3327 -10.3327 -10.3261 -10.3261 -10.3184 -10.3183
-10.3076 -10.3076 -10.2994 -10.2994 -10.2985 -10.2985 -10.2979 -10.2979
-10.2958 -10.2958 -10.2952 -10.2952  -8.0939  -8.0939  -8.0913  -8.0912
 -8.0861  -8.0861  -6.0426  -6.0426  -6.0400  -6.0399  -6.0389  -6.0389
 -6.0361  -6.0361  -6.0354  -6.0354  -6.0353  -6.0353  -6.0329  -6.0329
 -6.0315  -6.0315  -6.0268  -6.0268  -1.1723  -1.1710  -1.0189  -1.0147
 -1.0075  -0.9971  -0.9888  -0.9813  -0.9277  -0.8904  -0.8851  -0.8751
 -0.8542  -0.8538  -0.8490  -0.8431  -0.8397  -0.8362  -0.8190  -0.8182
 -0.8053  -0.7916  -0.7654  -0.7366  -0.7035  -0.6969  -0.6841  -0.6828
 -0.6755  -0.6615  -0.6588  -0.6459  -0.6335  -0.6312  -0.6248  -0.6233
 -0.6086  -0.6078  -0.6017  -0.5886  -0.5671  -0.5643  -0.5617  -0.5565
 -0.5504  -0.5454  -0.5336  -0.5136  -0.5108  -0.5104  -0.5103  -0.5060
 -0.5034  -0.5014  -0.4991  -0.4928  -0.4923  -0.4907  -0.4831  -0.4831
 -0.4730  -0.4684  -0.4679  -0.4616  -0.4599  -0.4565  -0.4473  -0.4456
 -0.4435  -0.4406  -0.4356  -0.4320  -0.4261  -0.4244  -0.3982  -0.3759
 -0.3728  -0.3715  -0.3590  -0.3532  -0.3411  -0.3410  -0.3377  -0.3377
 -0.3361  -0.3188  -0.2876  -0.2841  -0.2600
 -- Virtual --
 -0.0157   0.0078   0.0330   0.0513   0.0558   0.0684   0.0696   0.0736
  0.0857   0.0989   0.0995   0.1049   0.1082   0.1091   0.1165   0.1235
  0.1252   0.1269   0.1291   0.1348   0.1380   0.1394   0.1425   0.1455
  0.1500   0.1532   0.1619   0.1633   0.1654   0.1707   0.1750   0.1781
  0.1786   0.1800   0.1857   0.1888   0.1929   0.1931   0.1976   0.1997
  0.2112   0.2134   0.2220   0.2265   0.2319   0.2320   0.2333   0.2419
  0.2447   0.2452   0.2509   0.2681   0.2696   0.2760   0.2762   0.2888
  0.2958   0.2962   0.3030   0.3048   0.3084   0.3096   0.3178   0.3253
  0.3291   0.3327   0.3367   0.3394   0.3419   0.3527   0.3580   0.3667
  0.3726   0.3756   0.3788   0.3875   0.3913   0.3929   0.3943   0.3977
  0.3982   0.3998   0.4010   0.4139   0.4190   0.4249   0.4398   0.4459
  0.4521   0.4547   0.4649   0.4691   0.4724   0.4765   0.4771   0.4783
  0.4851   0.4852   0.4862   0.4906   0.4914   0.4926   0.4958   0.5008
  0.5039   0.5043   0.5093   0.5096   0.5107   0.5146   0.5152   0.5238
  0.5239   0.5268   0.5320   0.5351   0.5377   0.5398   0.5434   0.5481
  0.5511   0.5538   0.5598   0.5637   0.5711   0.5803   0.5832   0.5871
  0.5927   0.5939   0.5976   0.6022   0.6031   0.6088   0.6137   0.6174
  0.6195   0.6253   0.6279   0.6308   0.6339   0.6416   0.6456   0.6487
  0.6510   0.6555   0.6565   0.6587   0.6648   0.6764   0.6768   0.6786
  0.6801   0.6845   0.6901   0.7042   0.7052   0.7066   0.7070   0.7148
  0.7159   0.7202   0.7242   0.7255   0.7282   0.7337   0.7404   0.7423
  0.7489   0.7531   0.7552   0.7669   0.7750   0.7780   0.7830   0.7846
  0.7908   0.7923   0.7962   0.7982   0.8020   0.8100   0.8118   0.8167
  0.8188   0.8267   0.8298   0.8314   0.8406   0.8442   0.8503   0.8525
  0.8552   0.8588   0.8663   0.8682   0.8692   0.8773   0.8774   0.8821
  0.8893   0.9007   0.9021   0.9049   0.9080   0.9084   0.9117   0.9126
  0.9138   0.9170   0.9211   0.9255   0.9268   0.9313   0.9369   0.9395
  0.9503   0.9528   0.9670   0.9689   0.9746   0.9824   0.9871   0.9881
  0.9944   1.0024   1.0033   1.0035   1.0074   1.0202   1.0207   1.0272
  1.0283   1.0330   1.0373   1.0392   1.0426   1.0577   1.0676   1.0802
  1.0829   1.0929   1.0946   1.0989   1.1063   1.1068   1.1155   1.1201
  1.1235   1.1386   1.1466   1.1549   1.1583   1.1621   1.1682   1.1700
  1.1807   1.1856   1.1963   1.1993   1.2009   1.2046   1.2091   1.2207
  1.2225   1.2352   1.2543   1.2551   1.2688   1.2945   1.2974   1.3012
  1.3138   1.3189   1.3204   1.3322   1.3326   1.3337   1.3536   1.3639
  1.3645   1.3665   1.3723   1.3895   1.4240   1.4256   1.4290   1.4292
  1.4400   1.4514   1.4546   1.4698   1.4703   1.4827   1.4919   1.5066
  1.5077   1.5188   1.5253   1.5362   1.5395   1.5525   1.5573   1.5691
  1.5718   1.5724   1.5822   1.5875   1.5904   1.5928   1.5929   1.5990
  1.6024   1.6186   1.6197   1.6210   1.6244   1.6252   1.6281   1.6309
  1.6325   1.6474   1.6505   1.6555   1.6620   1.6634   1.6685   1.6733
  1.6765   1.6850   1.6914   1.6964   1.7027   1.7040   1.7157   1.7158
  1.7252   1.7254   1.7375   1.7487   1.7511   1.7625   1.7647   1.7770
  1.7775   1.7807   1.7818   1.7872   1.7927   1.7958   1.7978   1.8064
  1.8120   1.8126   1.8256   1.8319   1.8397   1.8412   1.8540   1.8554
  1.8624   1.8644   1.8701   1.8777   1.8820   1.8865   1.8894   1.9090
  1.9102   1.9153   1.9167   1.9190   1.9267   1.9303   1.9326   1.9434
  1.9446   1.9548   1.9623   1.9701   1.9758   1.9798   1.9808   1.9906
  1.9938   1.9992   2.0089   2.0116   2.0118   2.0152   2.0262   2.0279
  2.0464   2.0466   2.0477   2.0525   2.0585   2.0773   2.0795   2.0891
  2.1000   2.1051   2.1110   2.1211   2.1328   2.1427   2.1508   2.1640
  2.1703   2.1758   2.1774   2.1809   2.1870   2.1898   2.1962   2.2064
  2.2078   2.2211   2.2263   2.2414   2.2421   2.2454   2.2492   2.2600
  2.2714   2.2810   2.2901   2.3057   2.3145   2.3206   2.3314   2.3366
  2.3498   2.3503   2.3620   2.3764   2.3893   2.3978   2.4042   2.4152
  2.4167   2.4261   2.4376   2.4393   2.4622   2.4844   2.4886   2.4977
  2.5038   2.5141   2.5198   2.5444   2.5453   2.5570   2.5599   2.5714
  2.5843   2.6041   2.6114   2.6148   2.6215   2.6274   2.6324   2.6397
  2.6470   2.6595   2.6759   2.6868   2.6917   2.6980   2.7094   2.7140
  2.7168   2.7219   2.7224   2.7242   2.7278   2.7288   2.7315   2.7393
  2.7396   2.7537   2.7638   2.7831   2.7840   2.7899   2.8020   2.8087
  2.8088   2.8251   2.8260   2.8284   2.8317   2.8382   2.8576   2.8733
  2.8893   2.8923   2.9054   2.9111   2.9198   2.9238   2.9451   2.9626
  2.9792   2.9849   2.9890   2.9932   3.0166   3.0277   3.0511   3.0515
  3.0659   3.0718   3.0748   3.0756   3.0874   3.1274   3.1745   3.1772
  3.1795   3.1836   3.2038   3.2073   3.2122   3.2153   3.2158   3.2299
  3.2419   3.2497   3.2644   3.2757   3.2949   3.3091   3.3291   3.3334
  3.3429   3.3608   3.3624   3.3641   3.3837   3.3932   3.4053   3.4158
  3.4215   3.4220   3.4320   3.4467   3.4649   3.4877   3.4924   3.5086
  3.5093   3.5359   3.5609   3.5613   3.5671   3.6553   3.6732   3.6818
  3.7527   3.7633   3.8041   3.8457   3.8609   3.8643   3.8785   3.9001
  3.9102   3.9449   3.9595   3.9925   4.0608   4.0937   4.1088   4.1145
  4.1148   4.2274   4.2304   4.2596   4.2973   4.3043   4.3436   4.4270
  4.5268   4.5800   4.7139   4.8136   4.9875   5.1358   5.1481   5.3599
  5.4032   5.8090   5.8625   7.8928   7.9002   7.9222   7.9227   7.9298
  7.9647  17.3338  17.3339  17.3434  17.3448  17.3569  17.3631  17.5247
 17.5250  17.5850  17.5863  17.5932  17.5956  17.6224  17.6226  17.6427
 17.6442  17.6597  17.6811  23.4764  23.6063  23.6456  23.7596  23.7809
 23.8512  23.8645  23.9232  23.9259  23.9350  23.9544  23.9550  23.9862
 23.9901  24.0582  24.1457  24.1945  24.2233  24.2235  24.2438  24.2439
 24.2470  24.2814  24.2819  24.2923  24.2960  24.3049  24.3050  50.0840
 50.0868 189.1205 189.1292 189.1511 189.1513 189.1591 189.1942
 --------------------------------------------------------------
 
          Ground-State Mulliken Net Atomic Charges

     Atom                 Charge (a.u.)
  ----------------------------------------
      1 C                    -0.295555
      2 C                    -0.103899
      3 C                    -0.040673
      4 C                    -0.268544
      5 S                     0.300400
      6 C                    -0.242214
      7 C                    -0.039322
      8 C                    -0.048784
      9 C                    -0.206845
     10 S                     0.335407
     11 C                    -0.242288
     12 C                    -0.039285
     13 C                    -0.048827
     14 C                    -0.206861
     15 S                     0.335459
     16 C                    -0.295563
     17 C                    -0.103912
     18 C                    -0.040681
     19 C                    -0.268493
     20 S                     0.300404
     21 C                     0.027536
     22 C                    -0.210423
     23 C                     0.147354
     24 C                     0.027527
     25 C                    -0.210519
     26 C                     0.147327
     27 C                    -0.001564
     28 C                    -0.239943
     29 S                     0.287156
     30 C                    -0.001543
     31 C                    -0.239931
     32 S                     0.287164
     33 O                    -0.373592
     34 C                    -0.145206
     35 O                    -0.373580
     36 C                    -0.145208
     37 H                     0.149135
     38 H                     0.118602
     39 H                     0.119696
     40 H                     0.117763
     41 H                     0.119722
     42 H                     0.117728
     43 H                     0.119729
     44 H                     0.149134
     45 H                     0.118605
     46 H                     0.119698
     47 H                     0.127561
     48 H                     0.127483
     49 H                     0.132078
     50 H                     0.120832
     51 H                     0.113410
     52 H                     0.132111
     53 H                     0.113406
     54 H                     0.120828
  ----------------------------------------
  Sum of atomic charges =     0.000000

 -----------------------------------------------------------------
                    Cartesian Multipole Moments
 -----------------------------------------------------------------
    Charge (ESU x 10^10)
                 0.0000
    Dipole Moment (Debye)
         X      -0.0045      Y      -0.0001      Z      -0.0016
       Tot       0.0048
    Quadrupole Moments (Debye-Ang)
        XX    -190.2904     XY      15.0923     YY    -221.5149
        XZ       6.0609     YZ      -4.7120     ZZ    -262.4378
    Octopole Moments (Debye-Ang^2)
       XXX     -55.5005    XXY      17.7112    XYY     -23.8742
       YYY      51.4539    XXZ      11.9611    XYZ      -1.8856
       YYZ      13.3177    XZZ     -26.0859    YZZ      20.8841
       ZZZ      44.7809
    Hexadecapole Moments (Debye-Ang^3)
      XXXX  -49326.0081   XXXY     223.7572   XXYY   -9962.2215
      XYYY     572.4988   YYYY   -3137.7793   XXXZ    1516.3320
      XXYZ     276.8635   XYYZ     144.6164   YYYZ    -203.9842
      XXZZ  -10978.6246   XYZZ     178.1232   YYZZ    -723.4281
      XZZZ     642.5635   YZZZ    -175.4722   ZZZZ    -656.4406
 -----------------------------------------------------------------
Archival summary:
1\1\qnode5232\OPT\ProcedureUnspecified\6-311G**\622818\ahs1068\WedMar1723:31:432021WedMar1723:31:432021\0\\#,OPT,ProcedureUnspecified,6-311G**,\\0,1\S\C,1,1.74453\C,2,1.38564,1,126.055\O,3,1.36657,2,120.671,1,0.17326,0\C,3,1.39648,2,117.927,1,179.379,0\C,2,1.41393,1,111.461,3,179.448,0\C,6,1.39658,2,119.593,1,-179.446,0\O,7,1.36653,6,121.411,2,-179.234,0\C,7,1.38555,6,117.926,2,-0.035049,0\C,4,1.42358,3,113.716,2,-96.7796,0\H,10,1.08903,4,106.484,3,178.854,0\H,10,1.09499,4,110.966,3,59.6527,0\H,10,1.09552,4,111.024,3,-61.9956,0\C,8,1.42366,7,113.704,6,-83.8739,0\H,14,1.08902,8,106.484,7,-178.689,0\H,14,1.09495,8,110.951,7,-59.4776,0\H,14,1.09551,8,111.029,7,62.1573,0\C,5,1.4345,3,128.552,2,-178.058,0\H,18,1.08132,5,123.535,3,2.27448,0\C,18,1.35612,5,113.133,3,179.679,0\C,6,1.43451,2,111.837,1,2.1695,0\H,21,1.08133,6,123.526,2,175.909,0\C,21,1.35614,6,113.134,2,-1.49047,0\C,23,1.45458,21,126.612,6,-178.794,0\C,24,1.36835,23,127.3,21,33.0249,0\H,25,1.08179,24,122.533,23,2.98807,0\C,25,1.41607,24,113.213,23,-179.547,0\H,27,1.08164,25,124.328,24,-177.533,0\C,27,1.36816,25,113.214,24,-0.0609608,0\C,20,1.45461,18,126.61,5,178.792,0\C,30,1.36835,20,127.291,18,-33.1632,0\H,31,1.08179,30,122.529,20,-2.96704,0\C,31,1.41607,30,113.209,20,179.587,0\H,33,1.08165,31,124.328,30,177.55,0\C,33,1.36812,31,113.213,30,0.0457969,0\C,29,1.45612,27,127.261,25,179.277,0\C,36,1.368,29,127.125,27,-37.2359,0\H,37,1.08189,36,122.573,29,-3.1212,0\C,37,1.42079,36,113.119,29,178.491,0\H,39,1.08149,37,123.965,36,179.462,0\C,39,1.36067,37,112.605,36,0.427991,0\H,41,1.07923,39,128.379,37,179.391,0\C,35,1.45613,33,127.263,31,-179.272,0\C,43,1.36797,35,127.131,33,37.3463,0\H,44,1.08189,43,122.576,35,3.11048,0\C,44,1.42081,43,113.119,35,-178.484,0\H,46,1.08149,44,123.964,43,-179.468,0\C,46,1.36067,44,112.604,43,-0.421337,0\H,48,1.07923,46,128.38,44,-179.39,0\S,41,1.72007,39,111.813,37,-0.679381,0\S,48,1.72007,46,111.814,44,0.671999,0\S,29,1.73417,27,110.808,25,0.676714,0\S,35,1.73419,33,110.811,31,-0.662198,0\S,9,1.74451,7,126.053,6,-179.362,0\\\@

 Total job time:  2932.63s(wall), 61335.06s(cpu) 
 Wed Mar 17 23:31:43 2021

        *************************************************************
        *                                                           *
        *  Thank you very much for using Q-Chem.  Have a nice day.  *
        *                                                           *
        *************************************************************