qc.in
qchem qc.in_207511.0 /tmp/qchem207511/ 0
/software/QChem/5.3/exe/qcprog.exe_s qc.in_207511.0 /tmp/qchem207511/
                  Welcome to Q-Chem
     A Quantum Leap Into The Future Of Chemistry


 Q-Chem 5.3, Q-Chem, Inc., Pleasanton, CA (2020)

 License issued to: SRG Mark Ratner, Northwestern University

 Yihan Shao,  Zhengting Gan,  E. Epifanovsky,  A. T. B. Gilbert,  M. Wormit,  
 J. Kussmann,  A. W. Lange,  A. Behn,  Jia Deng,  Xintian Feng,  D. Ghosh,  
 M. Goldey,  P. R. Horn,  L. D. Jacobson,  I. Kaliman,  T. Kus,  A. Landau,  
 Jie Liu,  E. I. Proynov,  R. M. Richard,  R. P. Steele,  E. J. Sundstrom,  
 H. L. Woodcock III,  P. M. Zimmerman,  D. Zuev,  B. Alam,  B. Albrecht,  
 A. Aldossary,  E. Alguire,  S. A. Baeppler,  D. Barton,  Z. Benda,  
 Y. A. Bernard,  E. J. Berquist,  K. B. Bravaya,  H. Burton,  K. Carter-Fenk,  
 D. Casanova,  Chun-Min Chang,  Yunqing Chen,  A. Chien,  K. D. Closser,  
 M. P. Coons,  S. Coriani,  S. Dasgupta,  A. L. Dempwolff,  M. Diedenhofen,  
 Hainam Do,  R. G. Edgar,  Po-Tung Fang,  S. Faraji,  S. Fatehi,  
 Qingguo Feng,  J. Fosso-Tande,  J. Gayvert,  Qinghui Ge,  A. Ghysels,  
 G. Gidofalvi,  J. Gomes,  J. Gonthier,  S. Gulania,  A. Gunina,  D. Hait,  
 M. W. D. Hanson-Heine,  S. Hammes-Schiffer,  P. H. P. Harbach,  
 A. W. Hauser,  M. F. Herbst,  J. E. Herr,  E. G. Hohenstein,  Z. C. Holden,  
 S. Houck,  Kerwin Hui,  B. C. Huynh,  M. Ivanov,  T.-C. Jagau,  Hyunjun Ji,  
 B. Kaduk,  K. Khistyaev,  Jaehoon Kim,  P. Klunzinger,  K. Koh,  
 D. Kosenkov,  L. Koulias,  T. Kowalczyk,  C. M. Krauter,  A. Kunitsa,  
 Ka Un Lao,  A. Laurent,  K. V. Lawler,  Joonho Lee,  D. Lefrancois,  
 S. Lehtola,  D. S. Levine,  Yi-Pei Li,  You-Sheng Lin,  Fenglai Liu,  
 Kuan-Yu Liu,  E. Livshits,  M. Loipersberger,  A. Luenser,  P. Manohar,  
 E. Mansoor,  S. F. Manzer,  Shan-Ping Mao,  Yuezhi Mao,  N. Mardirossian,  
 A. V. Marenich,  T. Markovich,  L. A. Martinez-Martinez,  S. A. Maurer,  
 N. J. Mayhall,  S. C. McKenzie,  J.-M. Mewes,  P. Morgante,  A. F. Morrison,  
 J. W. Mullinax,  K. Nanda,  T. S. Nguyen-Beck,  R. Olivares-Amaya,  
 K. J. Oosterbaan,  J. A. Parkhill,  S. K. Paul,  F. Pavosevic,  Zheng Pei,  
 T. M. Perrine,  F. Plasser,  P. Pokhilko,  S. Prager,  A. Prociuk,  
 E. Ramos,  B. Rana,  D. R. Rehn,  F. Rob,  E. Rossomme,  M. Scheurer,  
 M. Schneider,  N. Sergueev,  S. M. Sharada,  S. Sharma,  W. Skomorowski,  
 D. W. Small,  T. Stauch,  C. J. Stein,  T. Stein,  Yu-Chuan Su,  
 S. P. Veccham,  Zhen Tao,  A. J. W. Thom,  A. Tkatchenko,  T. Tsuchimochi,  
 N. M. Tubman,  L. Vogt,  M. L. Vidal,  O. Vydrov,  M. A. Watson,  J. Wenzel,  
 M. de Wergifosse,  T. A. Wesolowski,  A. White,  J. Witte,  A. Yamada,  
 Jun Yang,  K. Yao,  S. Yeganeh,  S. R. Yost,  Zhi-Qiang You,  A. Zech,  
 Igor Ying Zhang,  Xing Zhang,  Yan Zhao,  Ying Zhu,  B. R. Brooks,  
 G. K. L. Chan,  C. J. Cramer,  M. S. Gordon,  W. J. Hehre,  A. Klamt,  
 M. W. Schmidt,  C. D. Sherrill,  D. G. Truhlar,  A. Aspuru-Guzik,  R. Baer,  
 A. T. Bell,  N. A. Besley,  Jeng-Da Chai,  A. E. DePrince, III,  
 R. A. DiStasio Jr.,  A. Dreuw,  B. D. Dunietz,  T. R. Furlani,  
 Chao-Ping Hsu,  Yousung Jung,  Jing Kong,  D. S. Lambrecht,  WanZhen Liang,  
 C. Ochsenfeld,  V. A. Rassolov,  L. V. Slipchenko,  J. E. Subotnik,  
 T. Van Voorhis,  J. M. Herbert,  A. I. Krylov,  P. M. W. Gill,  M. Head-Gordon

 Contributors to earlier versions of Q-Chem not listed above: 
 R. D. Adamson,  B. Austin,  J. Baker,  G. J. O. Beran,  K. Brandhorst,  
 S. T. Brown,  E. F. C. Byrd,  A. K. Chakraborty,  C.-L. Cheng,  
 Siu Hung Chien,  D. M. Chipman,  D. L. Crittenden,  H. Dachsel,  
 R. J. Doerksen,  A. D. Dutoi,  L. Fusti-Molnar,  W. A. Goddard III,  
 A. Golubeva-Zadorozhnaya,  S. R. Gwaltney,  G. Hawkins,  A. Heyden,  
 S. Hirata,  G. Kedziora,  F. J. Keil,  C. Kelley,  Jihan Kim,  R. A. King,  
 R. Z. Khaliullin,  P. P. Korambath,  W. Kurlancheek,  A. M. Lee,  M. S. Lee,  
 S. V. Levchenko,  Ching Yeh Lin,  D. Liotard,  R. C. Lochan,  I. Lotan,  
 P. E. Maslen,  N. Nair,  D. P. O'Neill,  D. Neuhauser,  E. Neuscamman,  
 C. M. Oana,  R. Olson,  B. Peters,  R. Peverati,  P. A. Pieniazek,  
 Y. M. Rhee,  J. Ritchie,  M. A. Rohrdanz,  E. Rosta,  N. J. Russ,  
 H. F. Schaefer III,  N. E. Schultz,  N. Shenvi,  A. C. Simmonett,  A. Sodt,  
 D. Stuck,  K. S. Thanthiriwatte,  V. Vanovschi,  Tao Wang,  A. Warshel,  
 C. F. Williams,  Q. Wu,  X. Xu,  W. Zhang

 Please cite Q-Chem as follows:
 Y. Shao et al., Mol. Phys. 113, 184-215 (2015)
 DOI: 10.1080/00268976.2014.952696

 Q-Chem 5.3.1 for Intel X86 EM64T Linux

 Parts of Q-Chem use Armadillo 9.800.1 (Horizon Scraper).
 http://arma.sourceforge.net/

 Q-Chem begins on Fri Aug  6 10:51:41 2021  

Host: 
0

     Scratch files written to /tmp/qchem207511//
 Aug2920 |scratch|qcdevops|jenkins|workspace|build_RNUM 4082   
Processing $rem in /software/QChem/5.3/config/preferences:
Processing $rem in /home/ahs1068/.qchemrc:
Symmetry turned off for PCM/SM12/SMD calculation

Checking the input file for inconsistencies... 	...done.

--------------------------------------------------------------
User input:
--------------------------------------------------------------
$comment
 TDDFT calculation
$end

$molecule
0 1
C        11.0300667174   -1.2169705447   -0.1937477834
C        11.1453429427    0.0170263874    0.3678343298
C         9.9069206243    0.7115761620    0.4190521091
C         8.8684243232   -0.0020600738   -0.1134866997
S         9.4153876149   -1.5466699960   -0.6864620168
C         4.9943011453    0.5852263644   -0.3043153483
C         5.6170450309    1.7704340056   -0.5868943860
C         7.0298398337    1.6805868706   -0.5525642251
C         7.4831390468    0.4269482884   -0.2448723209
S         6.1578061900   -0.6583272416    0.0254942725
C        -4.8002708675   -0.7404337471    0.1900569585
C        -5.4231766728   -1.9261953891    0.4699500053
C        -6.8359636244   -1.8362589847    0.4354623129
C        -7.2891933967   -0.5818589505    0.1306437404
S        -5.9637512756    0.5038872804   -0.1371591647
C       -10.8359090159    1.0626070297    0.0812603699
C       -10.9515010700   -0.1712040459   -0.4806707743
C        -9.7131982825   -0.8658745934   -0.5325320852
C        -8.6744483292   -0.1525646592    0.0000217500
S        -9.2210635405    1.3918787298    0.5737112120
C        -1.0845811536   -0.8169467038   -0.1836050749
C        -1.0925063696    0.5217950999    0.2712548956
C         0.0664200393    1.2698145476    0.4029478321
C         1.2786328609    0.6619561921    0.0694600432
C         1.2865598001   -0.6768934440   -0.3854304084
C         0.1277330086   -1.4249511228   -0.5168752362
C        -2.4098133682   -1.3594863150   -0.2685467894
C        -3.3687772499   -0.4887057236    0.1330204720
S        -2.7100645429    1.0609517346    0.6402968336
C         2.6039002578    1.2044073603    0.1543350051
C         3.5627714548    0.3335446174   -0.2472087105
S         2.9040529034   -1.2160573909   -0.7546414430
O         0.0174594922    2.5562466760    0.8614261971
C         0.0119313546    3.5332650022   -0.1739368643
O         0.1770362150   -2.7114897745   -0.9749177990
C         0.1788379895   -3.6881185397    0.0609353761
H        11.8002181496   -1.9567210396   -0.3498529975
H        12.0770146933    0.4143209706    0.7469932392
H         9.7760554557    1.6927130435    0.8557869162
H         5.0708343921    2.6660025766   -0.8512330200
H         7.6988666777    2.4981960140   -0.7846727259
H        -4.8771510227   -2.8224857889    0.7322394159
H        -7.5050489546   -2.6542805468    0.6659296378
H       -11.6059414567    1.8023734724    0.2378591989
H       -11.8833264200   -0.5681635140   -0.8598035352
H        -9.5824685098   -1.8467212879   -0.9699535072
H        -2.6278168370   -2.3456127232   -0.6549346449
H         2.8221403208    2.1905322759    0.5405634518
H        -0.0492111432    4.5034315577    0.3170100509
H        -0.8520157684    3.4003881897   -0.8334302073
H         0.9305930779    3.4810657997   -0.7684942724
H         0.2436564280   -4.6584029308   -0.4292838913
H        -0.7427031004   -3.6369350201    0.6510953769
H         1.0393576532   -3.5534795150    0.7244862514
$end


$rem
METHOD         CAM-B3LYP
BASIS          def2-TZVPPD
CIS_N_ROOTS    10
SOLVENT_METHOD PCM
SCF_ALGORITHM  DIIS
SCF_MAX_CYCLES 100
THRESH         14
S2THRESH       15
MEM_TOTAL      100000


$end

$pcm
theory          iefpcm
method          swig
printlevel      1
$end

$solvent
dielectric 4.81
$end




--------------------------------------------------------------
 ----------------------------------------------------------------
             Standard Nuclear Orientation (Angstroms)
    I     Atom           X                Y                Z
 ----------------------------------------------------------------
    1      C      11.0300667174    -1.2169705447    -0.1937477834
    2      C      11.1453429427     0.0170263874     0.3678343298
    3      C       9.9069206243     0.7115761620     0.4190521091
    4      C       8.8684243232    -0.0020600738    -0.1134866997
    5      S       9.4153876149    -1.5466699960    -0.6864620168
    6      C       4.9943011453     0.5852263644    -0.3043153483
    7      C       5.6170450309     1.7704340056    -0.5868943860
    8      C       7.0298398337     1.6805868706    -0.5525642251
    9      C       7.4831390468     0.4269482884    -0.2448723209
   10      S       6.1578061900    -0.6583272416     0.0254942725
   11      C      -4.8002708675    -0.7404337471     0.1900569585
   12      C      -5.4231766728    -1.9261953891     0.4699500053
   13      C      -6.8359636244    -1.8362589847     0.4354623129
   14      C      -7.2891933967    -0.5818589505     0.1306437404
   15      S      -5.9637512756     0.5038872804    -0.1371591647
   16      C     -10.8359090159     1.0626070297     0.0812603699
   17      C     -10.9515010700    -0.1712040459    -0.4806707743
   18      C      -9.7131982825    -0.8658745934    -0.5325320852
   19      C      -8.6744483292    -0.1525646592     0.0000217500
   20      S      -9.2210635405     1.3918787298     0.5737112120
   21      C      -1.0845811536    -0.8169467038    -0.1836050749
   22      C      -1.0925063696     0.5217950999     0.2712548956
   23      C       0.0664200393     1.2698145476     0.4029478321
   24      C       1.2786328609     0.6619561921     0.0694600432
   25      C       1.2865598001    -0.6768934440    -0.3854304084
   26      C       0.1277330086    -1.4249511228    -0.5168752362
   27      C      -2.4098133682    -1.3594863150    -0.2685467894
   28      C      -3.3687772499    -0.4887057236     0.1330204720
   29      S      -2.7100645429     1.0609517346     0.6402968336
   30      C       2.6039002578     1.2044073603     0.1543350051
   31      C       3.5627714548     0.3335446174    -0.2472087105
   32      S       2.9040529034    -1.2160573909    -0.7546414430
   33      O       0.0174594922     2.5562466760     0.8614261971
   34      C       0.0119313546     3.5332650022    -0.1739368643
   35      O       0.1770362150    -2.7114897745    -0.9749177990
   36      C       0.1788379895    -3.6881185397     0.0609353761
   37      H      11.8002181496    -1.9567210396    -0.3498529975
   38      H      12.0770146933     0.4143209706     0.7469932392
   39      H       9.7760554557     1.6927130435     0.8557869162
   40      H       5.0708343921     2.6660025766    -0.8512330200
   41      H       7.6988666777     2.4981960140    -0.7846727259
   42      H      -4.8771510227    -2.8224857889     0.7322394159
   43      H      -7.5050489546    -2.6542805468     0.6659296378
   44      H     -11.6059414567     1.8023734724     0.2378591989
   45      H     -11.8833264200    -0.5681635140    -0.8598035352
   46      H      -9.5824685098    -1.8467212879    -0.9699535072
   47      H      -2.6278168370    -2.3456127232    -0.6549346449
   48      H       2.8221403208     2.1905322759     0.5405634518
   49      H      -0.0492111432     4.5034315577     0.3170100509
   50      H      -0.8520157684     3.4003881897    -0.8334302073
   51      H       0.9305930779     3.4810657997    -0.7684942724
   52      H       0.2436564280    -4.6584029308    -0.4292838913
   53      H      -0.7427031004    -3.6369350201     0.6510953769
   54      H       1.0393576532    -3.5534795150     0.7244862514
 ----------------------------------------------------------------
 Nuclear Repulsion Energy =        4368.90510921 hartrees
 There are      149 alpha and      149 beta electrons
 Requested basis set is def2-TZVPPD
 There are 620 shells and 1728 basis functions

 Total QAlloc Memory Limit 100000 MB
 Mega-Array Size       188 MB
 MEM_STATIC part       192 MB
 Discretize the solute cavity surface with Lebedev spheres
	Using 110 Lebedev grid points for each H atom
	Using 194 Lebedev grid points for other atoms
	Atomic van der Waals radii will be scaled by 1.20
 Remove points where switching function is < 1.0e-08
 Keep 3702 surface tesserae and discard 5262 interior tesserae
 Molecular Surface Area = 567.804 Angst**2
 A cutoff of  1.0D-15 yielded 106534 shell pairs
 There are    796452 function pairs (   1018522 Cartesian)
 Smallest overlap matrix eigenvalue = 1.36E-07
 Linear dependence detected in AO basis
 Number of orthogonalized atomic orbitals = 1715
 Maximum deviation from orthogonality = 2.421E-10

 Scale SEOQF with 1.000000e-02/1.000000e-01/1.000000e-01

 Standard Electronic Orientation quadrupole field applied
 Nucleus-field energy     =     0.0000000862 hartrees
 Guess from superposition of atomic densities
 Warning:  Energy on first SCF cycle will be non-variational
 SAD guess density has 298.000000 electrons

 -----------------------------------------------------------------------
  General SCF calculation program by
  Eric Jon Sundstrom, Paul Horn, Yuezhi Mao, Dmitri Zuev, Alec White,
  David Stuck, Shaama M.S., Shane Yost, Joonho Lee, David Small,
  Daniel Levine, Susi Lehtola, Hugh Burton, Evgeny Epifanovsky,
  Bang C. Huynh
 -----------------------------------------------------------------------
 Exchange:     0.1900 Hartree-Fock + 0.3500 B88 + 0.4600 muB88 + LR-HF
 Correlation:  0.1900 VWN5 + 0.8100 LYP
 Using SG-1 standard quadrature grid
 using 48 threads for integral computing
 -------------------------------------------------------
 OpenMP Integral computing Module                
 Release: version 1.0, May 2013, Q-Chem Inc. Pittsburgh 
 -------------------------------------------------------
 using 48 threads for integral computing
 -------------------------------------------------------
 OpenMP Integral computing Module                
 Release: version 1.0, May 2013, Q-Chem Inc. Pittsburgh 
 -------------------------------------------------------
 A restricted SCF calculation will be
 performed using DIIS
 SCF converges when DIIS error is below 1.0e-08
 ---------------------------------------
  Cycle       Energy         DIIS error
 ---------------------------------------
 BuildS Time: 1.05 s (CPU) 0.02 s (wall)
 Using non-symmetric K matrix
 Time req'd to invert K: 16.96 s (CPU) 0.36 s (wall)
 Warning: not using a symmetric Q

 ----------------Surface Charge Diagnostics-----------------
 Total Electronic Charge                   =            -298
 Total Nuclear Charge                      =             298
 Theoretical Electronic Surface Charge     =    2.360444e+02
 Theoretical Nuclear Surface Charge        =   -2.360444e+02
 Theoretical Total Surface Charge          =    0.000000e+00
 Total Electronic Surface Charge           =    2.380851e+02
 Total Nuclear Surface Charge              =   -2.381298e+02
 Total Surface Charge                      =   -4.462323e-02
 Electronic Surface Charge Gauss Law Error =    2.040698e+00
 Nuclear Surface Charge Gauss Law Error    =   -2.085321e+00
 Total Surface Charge Gauss Law Error      =   -4.462323e-02
 -----------------------------------------------------------
----------------------Components of G_es----------------------
  qN-ESPN =   -6299.72630207 a.u. = -3953137.91925956 kcal/mol
  qN-ESPe =    6300.42067364 a.u. = 3953573.64399639 kcal/mol
  qe-ESPN =    6300.17769098 a.u. = 3953421.17007216 kcal/mol
  qe-ESPe =   -6300.92529947 a.u. = -3953890.30148373 kcal/mol
  -------
  q-ESPN  =       0.45138890 a.u. =     283.25081259 kcal/mol
  q-ESPe  =      -0.50462583 a.u. =    -316.65748734 kcal/mol
---------------------------------------------------------------
    1   -3628.9692645875      1.22e-02  

 ----------------Surface Charge Diagnostics-----------------
 Total Electronic Charge                   =            -298
 Total Nuclear Charge                      =             298
 Theoretical Electronic Surface Charge     =    2.360444e+02
 Theoretical Nuclear Surface Charge        =   -2.360444e+02
 Theoretical Total Surface Charge          =    0.000000e+00
 Total Electronic Surface Charge           =    2.380677e+02
 Total Nuclear Surface Charge              =   -2.381298e+02
 Total Surface Charge                      =   -6.210103e-02
 Electronic Surface Charge Gauss Law Error =    2.023220e+00
 Nuclear Surface Charge Gauss Law Error    =   -2.085321e+00
 Total Surface Charge Gauss Law Error      =   -6.210103e-02
 -----------------------------------------------------------
----------------------Components of G_es----------------------
  qN-ESPN =   -6299.72630207 a.u. = -3953137.91925956 kcal/mol
  qN-ESPe =    6300.99083827 a.u. = 3953931.42769990 kcal/mol
  qe-ESPN =    6300.60896343 a.u. = 3953691.79762271 kcal/mol
  qe-ESPe =   -6301.94332181 a.u. = -3954529.12014283 kcal/mol
  -------
  q-ESPN  =       0.88266136 a.u. =     553.87836315 kcal/mol
  q-ESPe  =      -0.95248354 a.u. =    -597.69244292 kcal/mol
---------------------------------------------------------------
    2   -3616.9560100257      9.82e-04  

 ----------------Surface Charge Diagnostics-----------------
 Total Electronic Charge                   =            -298
 Total Nuclear Charge                      =             298
 Theoretical Electronic Surface Charge     =    2.360444e+02
 Theoretical Nuclear Surface Charge        =   -2.360444e+02
 Theoretical Total Surface Charge          =    0.000000e+00
 Total Electronic Surface Charge           =    2.380746e+02
 Total Nuclear Surface Charge              =   -2.381298e+02
 Total Surface Charge                      =   -5.521048e-02
 Electronic Surface Charge Gauss Law Error =    2.030110e+00
 Nuclear Surface Charge Gauss Law Error    =   -2.085321e+00
 Total Surface Charge Gauss Law Error      =   -5.521048e-02
 -----------------------------------------------------------
----------------------Components of G_es----------------------
  qN-ESPN =   -6299.72630207 a.u. = -3953137.91925956 kcal/mol
  qN-ESPe =    6300.22099801 a.u. = 3953448.34564236 kcal/mol
  qe-ESPN =    6299.88423502 a.u. = 3953237.02368042 kcal/mol
  qe-ESPe =   -6300.40548928 a.u. = -3953564.11566068 kcal/mol
  -------
  q-ESPN  =       0.15793295 a.u. =      99.10442085 kcal/mol
  q-ESPe  =      -0.18449127 a.u. =    -115.77001832 kcal/mol
---------------------------------------------------------------
    3   -3616.9519598933      1.01e-03  

 ----------------Surface Charge Diagnostics-----------------
 Total Electronic Charge                   =            -298
 Total Nuclear Charge                      =             298
 Theoretical Electronic Surface Charge     =    2.360444e+02
 Theoretical Nuclear Surface Charge        =   -2.360444e+02
 Theoretical Total Surface Charge          =    0.000000e+00
 Total Electronic Surface Charge           =    2.380758e+02
 Total Nuclear Surface Charge              =   -2.381298e+02
 Total Surface Charge                      =   -5.394740e-02
 Electronic Surface Charge Gauss Law Error =    2.031373e+00
 Nuclear Surface Charge Gauss Law Error    =   -2.085321e+00
 Total Surface Charge Gauss Law Error      =   -5.394740e-02
 -----------------------------------------------------------
----------------------Components of G_es----------------------
  qN-ESPN =   -6299.72630207 a.u. = -3953137.91925956 kcal/mol
  qN-ESPe =    6300.61508857 a.u. = 3953695.64120498 kcal/mol
  qe-ESPN =    6300.28785177 a.u. = 3953490.29700980 kcal/mol
  qe-ESPe =   -6301.20616974 a.u. = -3954066.55023391 kcal/mol
  -------
  q-ESPN  =       0.56154969 a.u. =     352.37775023 kcal/mol
  q-ESPe  =      -0.59108116 a.u. =    -370.90902892 kcal/mol
---------------------------------------------------------------
    4   -3617.3133359568      1.35e-04  

 ----------------Surface Charge Diagnostics-----------------
 Total Electronic Charge                   =            -298
 Total Nuclear Charge                      =             298
 Theoretical Electronic Surface Charge     =    2.360444e+02
 Theoretical Nuclear Surface Charge        =   -2.360444e+02
 Theoretical Total Surface Charge          =    0.000000e+00
 Total Electronic Surface Charge           =    2.380751e+02
 Total Nuclear Surface Charge              =   -2.381298e+02
 Total Surface Charge                      =   -5.467214e-02
 Electronic Surface Charge Gauss Law Error =    2.030649e+00
 Nuclear Surface Charge Gauss Law Error    =   -2.085321e+00
 Total Surface Charge Gauss Law Error      =   -5.467214e-02
 -----------------------------------------------------------
----------------------Components of G_es----------------------
  qN-ESPN =   -6299.72630207 a.u. = -3953137.91925956 kcal/mol
  qN-ESPe =    6300.48919235 a.u. = 3953616.64013123 kcal/mol
  qe-ESPN =    6300.15229044 a.u. = 3953405.23099352 kcal/mol
  qe-ESPe =   -6300.94406912 a.u. = -3953902.07961336 kcal/mol
  -------
  q-ESPN  =       0.42598837 a.u. =     267.31173396 kcal/mol
  q-ESPe  =      -0.45487677 a.u. =    -285.43948213 kcal/mol
---------------------------------------------------------------
    5   -3617.3189596474      5.90e-05  

 ----------------Surface Charge Diagnostics-----------------
 Total Electronic Charge                   =            -298
 Total Nuclear Charge                      =             298
 Theoretical Electronic Surface Charge     =    2.360444e+02
 Theoretical Nuclear Surface Charge        =   -2.360444e+02
 Theoretical Total Surface Charge          =    0.000000e+00
 Total Electronic Surface Charge           =    2.380751e+02
 Total Nuclear Surface Charge              =   -2.381298e+02
 Total Surface Charge                      =   -5.466917e-02
 Electronic Surface Charge Gauss Law Error =    2.030652e+00
 Nuclear Surface Charge Gauss Law Error    =   -2.085321e+00
 Total Surface Charge Gauss Law Error      =   -5.466917e-02
 -----------------------------------------------------------
----------------------Components of G_es----------------------
  qN-ESPN =   -6299.72630207 a.u. = -3953137.91925956 kcal/mol
  qN-ESPe =    6300.51157599 a.u. = 3953630.68607783 kcal/mol
  qe-ESPN =    6300.17523685 a.u. = 3953419.63008184 kcal/mol
  qe-ESPe =   -6300.98948275 a.u. = -3953930.57709513 kcal/mol
  -------
  q-ESPN  =       0.44893477 a.u. =     281.71082228 kcal/mol
  q-ESPe  =      -0.47790676 a.u. =    -299.89101730 kcal/mol
---------------------------------------------------------------
    6   -3617.3201029649      2.40e-05  

 ----------------Surface Charge Diagnostics-----------------
 Total Electronic Charge                   =            -298
 Total Nuclear Charge                      =             298
 Theoretical Electronic Surface Charge     =    2.360444e+02
 Theoretical Nuclear Surface Charge        =   -2.360444e+02
 Theoretical Total Surface Charge          =    0.000000e+00
 Total Electronic Surface Charge           =    2.380751e+02
 Total Nuclear Surface Charge              =   -2.381298e+02
 Total Surface Charge                      =   -5.464068e-02
 Electronic Surface Charge Gauss Law Error =    2.030680e+00
 Nuclear Surface Charge Gauss Law Error    =   -2.085321e+00
 Total Surface Charge Gauss Law Error      =   -5.464068e-02
 -----------------------------------------------------------
----------------------Components of G_es----------------------
  qN-ESPN =   -6299.72630207 a.u. = -3953137.91925956 kcal/mol
  qN-ESPe =    6300.51393765 a.u. = 3953632.16804428 kcal/mol
  qe-ESPN =    6300.17793268 a.u. = 3953421.32174361 kcal/mol
  qe-ESPe =   -6300.99460468 a.u. = -3953933.79115933 kcal/mol
  -------
  q-ESPN  =       0.45163061 a.u. =     283.40248405 kcal/mol
  q-ESPe  =      -0.48066703 a.u. =    -301.62311505 kcal/mol
---------------------------------------------------------------
    7   -3617.3203080346      4.71e-06  

 ----------------Surface Charge Diagnostics-----------------
 Total Electronic Charge                   =            -298
 Total Nuclear Charge                      =             298
 Theoretical Electronic Surface Charge     =    2.360444e+02
 Theoretical Nuclear Surface Charge        =   -2.360444e+02
 Theoretical Total Surface Charge          =    0.000000e+00
 Total Electronic Surface Charge           =    2.380751e+02
 Total Nuclear Surface Charge              =   -2.381298e+02
 Total Surface Charge                      =   -5.465930e-02
 Electronic Surface Charge Gauss Law Error =    2.030662e+00
 Nuclear Surface Charge Gauss Law Error    =   -2.085321e+00
 Total Surface Charge Gauss Law Error      =   -5.465930e-02
 -----------------------------------------------------------
----------------------Components of G_es----------------------
  qN-ESPN =   -6299.72630207 a.u. = -3953137.91925956 kcal/mol
  qN-ESPe =    6300.51444313 a.u. = 3953632.48523416 kcal/mol
  qe-ESPN =    6300.17804085 a.u. = 3953421.38961807 kcal/mol
  qe-ESPe =   -6300.99524543 a.u. = -3953934.19323500 kcal/mol
  -------
  q-ESPN  =       0.45173877 a.u. =     283.47035850 kcal/mol
  q-ESPe  =      -0.48080231 a.u. =    -301.70800084 kcal/mol
---------------------------------------------------------------
    8   -3617.3203202798      2.51e-06  

 ----------------Surface Charge Diagnostics-----------------
 Total Electronic Charge                   =            -298
 Total Nuclear Charge                      =             298
 Theoretical Electronic Surface Charge     =    2.360444e+02
 Theoretical Nuclear Surface Charge        =   -2.360444e+02
 Theoretical Total Surface Charge          =    0.000000e+00
 Total Electronic Surface Charge           =    2.380751e+02
 Total Nuclear Surface Charge              =   -2.381298e+02
 Total Surface Charge                      =   -5.466220e-02
 Electronic Surface Charge Gauss Law Error =    2.030659e+00
 Nuclear Surface Charge Gauss Law Error    =   -2.085321e+00
 Total Surface Charge Gauss Law Error      =   -5.466220e-02
 -----------------------------------------------------------
----------------------Components of G_es----------------------
  qN-ESPN =   -6299.72630207 a.u. = -3953137.91925956 kcal/mol
  qN-ESPe =    6300.51449400 a.u. = 3953632.51715585 kcal/mol
  qe-ESPN =    6300.17809842 a.u. = 3953421.42574777 kcal/mol
  qe-ESPe =   -6300.99535909 a.u. = -3953934.26455695 kcal/mol
  -------
  q-ESPN  =       0.45179635 a.u. =     283.50648821 kcal/mol
  q-ESPe  =      -0.48086509 a.u. =    -301.74740110 kcal/mol
---------------------------------------------------------------
    9   -3617.3203240325      9.75e-07  

 ----------------Surface Charge Diagnostics-----------------
 Total Electronic Charge                   =            -298
 Total Nuclear Charge                      =             298
 Theoretical Electronic Surface Charge     =    2.360444e+02
 Theoretical Nuclear Surface Charge        =   -2.360444e+02
 Theoretical Total Surface Charge          =    0.000000e+00
 Total Electronic Surface Charge           =    2.380751e+02
 Total Nuclear Surface Charge              =   -2.381298e+02
 Total Surface Charge                      =   -5.466400e-02
 Electronic Surface Charge Gauss Law Error =    2.030657e+00
 Nuclear Surface Charge Gauss Law Error    =   -2.085321e+00
 Total Surface Charge Gauss Law Error      =   -5.466400e-02
 -----------------------------------------------------------
----------------------Components of G_es----------------------
  qN-ESPN =   -6299.72630207 a.u. = -3953137.91925956 kcal/mol
  qN-ESPe =    6300.51426915 a.u. = 3953632.37606358 kcal/mol
  qe-ESPN =    6300.17782336 a.u. = 3953421.25314271 kcal/mol
  qe-ESPe =   -6300.99486144 a.u. = -3953933.95227651 kcal/mol
  -------
  q-ESPN  =       0.45152129 a.u. =     283.33388314 kcal/mol
  q-ESPe  =      -0.48059229 a.u. =    -301.57621293 kcal/mol
---------------------------------------------------------------
   10   -3617.3203246390      3.95e-07  

 ----------------Surface Charge Diagnostics-----------------
 Total Electronic Charge                   =            -298
 Total Nuclear Charge                      =             298
 Theoretical Electronic Surface Charge     =    2.360444e+02
 Theoretical Nuclear Surface Charge        =   -2.360444e+02
 Theoretical Total Surface Charge          =    0.000000e+00
 Total Electronic Surface Charge           =    2.380751e+02
 Total Nuclear Surface Charge              =   -2.381298e+02
 Total Surface Charge                      =   -5.466313e-02
 Electronic Surface Charge Gauss Law Error =    2.030658e+00
 Nuclear Surface Charge Gauss Law Error    =   -2.085321e+00
 Total Surface Charge Gauss Law Error      =   -5.466313e-02
 -----------------------------------------------------------
----------------------Components of G_es----------------------
  qN-ESPN =   -6299.72630207 a.u. = -3953137.91925956 kcal/mol
  qN-ESPe =    6300.51441900 a.u. = 3953632.47009754 kcal/mol
  qe-ESPN =    6300.17798618 a.u. = 3953421.35531583 kcal/mol
  qe-ESPe =   -6300.99517572 a.u. = -3953934.14949114 kcal/mol
  -------
  q-ESPN  =       0.45168411 a.u. =     283.43605627 kcal/mol
  q-ESPe  =      -0.48075672 a.u. =    -301.67939360 kcal/mol
---------------------------------------------------------------
   11   -3617.3203247145      1.72e-07  

 ----------------Surface Charge Diagnostics-----------------
 Total Electronic Charge                   =            -298
 Total Nuclear Charge                      =             298
 Theoretical Electronic Surface Charge     =    2.360444e+02
 Theoretical Nuclear Surface Charge        =   -2.360444e+02
 Theoretical Total Surface Charge          =    0.000000e+00
 Total Electronic Surface Charge           =    2.380751e+02
 Total Nuclear Surface Charge              =   -2.381298e+02
 Total Surface Charge                      =   -5.466349e-02
 Electronic Surface Charge Gauss Law Error =    2.030657e+00
 Nuclear Surface Charge Gauss Law Error    =   -2.085321e+00
 Total Surface Charge Gauss Law Error      =   -5.466349e-02
 -----------------------------------------------------------
----------------------Components of G_es----------------------
  qN-ESPN =   -6299.72630207 a.u. = -3953137.91925956 kcal/mol
  qN-ESPe =    6300.51437788 a.u. = 3953632.44429046 kcal/mol
  qe-ESPN =    6300.17794035 a.u. = 3953421.32655405 kcal/mol
  qe-ESPe =   -6300.99508801 a.u. = -3953934.09444827 kcal/mol
  -------
  q-ESPN  =       0.45163827 a.u. =     283.40729449 kcal/mol
  q-ESPe  =      -0.48071013 a.u. =    -301.65015781 kcal/mol
---------------------------------------------------------------
   12   -3617.3203247390      5.71e-08  

 ----------------Surface Charge Diagnostics-----------------
 Total Electronic Charge                   =            -298
 Total Nuclear Charge                      =             298
 Theoretical Electronic Surface Charge     =    2.360444e+02
 Theoretical Nuclear Surface Charge        =   -2.360444e+02
 Theoretical Total Surface Charge          =    0.000000e+00
 Total Electronic Surface Charge           =    2.380751e+02
 Total Nuclear Surface Charge              =   -2.381298e+02
 Total Surface Charge                      =   -5.466345e-02
 Electronic Surface Charge Gauss Law Error =    2.030657e+00
 Nuclear Surface Charge Gauss Law Error    =   -2.085321e+00
 Total Surface Charge Gauss Law Error      =   -5.466345e-02
 -----------------------------------------------------------
----------------------Components of G_es----------------------
  qN-ESPN =   -6299.72630207 a.u. = -3953137.91925956 kcal/mol
  qN-ESPe =    6300.51436281 a.u. = 3953632.43483705 kcal/mol
  qe-ESPN =    6300.17792616 a.u. = 3953421.31765209 kcal/mol
  qe-ESPe =   -6300.99505881 a.u. = -3953934.07612988 kcal/mol
  -------
  q-ESPN  =       0.45162409 a.u. =     283.39839253 kcal/mol
  q-ESPe  =      -0.48069600 a.u. =    -301.64129283 kcal/mol
---------------------------------------------------------------
   13   -3617.3203247373      1.86e-08  
   14   -3617.3203247372      7.79e-09  Convergence criterion met

 ----------------Surface Charge Diagnostics-----------------
 Total Electronic Charge                   =            -298
 Total Nuclear Charge                      =             298
 Theoretical Electronic Surface Charge     =    2.360444e+02
 Theoretical Nuclear Surface Charge        =   -2.360444e+02
 Theoretical Total Surface Charge          =    0.000000e+00
 Total Electronic Surface Charge           =    2.380751e+02
 Total Nuclear Surface Charge              =   -2.381298e+02
 Total Surface Charge                      =   -5.466346e-02
 Electronic Surface Charge Gauss Law Error =    2.030657e+00
 Nuclear Surface Charge Gauss Law Error    =   -2.085321e+00
 Total Surface Charge Gauss Law Error      =   -5.466346e-02
 -----------------------------------------------------------
----------------------Components of G_es----------------------
  qN-ESPN =   -6299.72630207 a.u. = -3953137.91925956 kcal/mol
  qN-ESPe =    6300.51436105 a.u. = 3953632.43373116 kcal/mol
  qe-ESPN =    6300.17792403 a.u. = 3953421.31631676 kcal/mol
  qe-ESPe =   -6300.99505484 a.u. = -3953934.07363632 kcal/mol
  -------
  q-ESPN  =       0.45162196 a.u. =     283.39705719 kcal/mol
  q-ESPe  =      -0.48069379 a.u. =    -301.63990516 kcal/mol
---------------------------------------------------------------
 ---------------------------------------
 SCF time:   CPU 95969.78s  wall 3965.00s 

************** Final PCM Free Energy Summary **************
 G_electrostatic  =      -0.01453591 hartree =      -9.12142398 kcal/mol
 G_cavitation     =       0.00000000 hartree =       0.00000000 kcal/mol
 G_dispersion     =       0.00000000 hartree =       0.00000000 kcal/mol
 G_repulsion      =       0.00000000 hartree =       0.00000000 kcal/mol
 --------------------------------------------------
 Non-electrostatic Free Energy =       0.00000000 hartree =       0.00000000 kcal/mol
 Total                         =      -0.01453591 hartree =      -9.12142398 kcal/mol
 --------------------------------------------------
 SCF Energy (H0 + V/2)                       =   -3617.32032474 
 Solute Internal Energy (H0)                 =   -3617.30578882 
 Total Free Energy (H0 + V/2 + non-elec)     =   -3617.32032474 hartree
                                             = -2269902.76341340 kcal/mol
***********************************************************

 SCF   energy in the final basis set =    -3617.3203247372
 Total energy in the final basis set =    -3617.3203247372
 
 Direct TDDFT/TDA calculation will be performed
 Exchange:     0.1900 Hartree-Fock + 0.3500 B88 + 0.4600 muB88 + LR-HF
 Correlation:  0.1900 VWN5 + 0.8100 LYP
 Using SG-1 standard quadrature grid
 Triplet excitation energies requested
 Singlet excitation energies requested
 Adding PCM contribution to the XC response
 CIS energy converged when residual is below 10e- 6
 ---------------------------------------------------
 Iter    Rts Conv    Rts Left    Ttl Dev     Max Dev
 ---------------------------------------------------
   1         0          10      0.000616    0.000084
   2         0          10      0.000319    0.000054
   3         0          10      0.000231    0.000063
   4         0          10      0.000202    0.000056
   5         3           7      0.000169    0.000047
   6         3           7      0.000076    0.000022
   7         4           6      0.000029    0.000008
   8         6           4      0.000015    0.000004
   9         7           3      0.000011    0.000003
  10         8           2      0.000010    0.000004
  11         8           2      0.000008    0.000003
  12         8           2      0.000006    0.000001
  13        10           0      0.000004    0.000001    Roots Converged
 ---------------------------------------------------
 Triplets done: starting singlet calculation
 ---------------------------------------------------
 Iter    Rts Conv    Rts Left    Ttl Dev     Max Dev
 ---------------------------------------------------
 Using non-symmetric K matrix
 Warning: not using a symmetric Q
  14         0          10      0.001181    0.000177
  15         0          10      0.000517    0.000075
  16         0          10      0.000273    0.000045
  17         0          10      0.000184    0.000051
  18         0          10      0.000152    0.000051
  19         1           9      0.000095    0.000035
  20         3           7      0.000079    0.000027
  21         3           7      0.000068    0.000032
  22         6           4      0.000046    0.000022
  23         6           4      0.000039    0.000019
  24         7           3      0.000023    0.000011
  25         7           3      0.000017    0.000009
  26         7           3      0.000014    0.000008
  27         9           1      0.000010    0.000004
  28         9           1      0.000007    0.000003
  29         9           1      0.000006    0.000001
  30        10           0      0.000006    0.000001    Roots Converged
 ---------------------------------------------------
 
 ---------------------------------------------------
         TDDFT/TDA Excitation Energies              
 ---------------------------------------------------

 Excited state   1: excitation energy (eV) =    2.4318
 Total energy for state  1:                 -3617.23095915 au
    Multiplicity: Triplet
    Trans. Mom.:  0.0000 X   0.0000 Y   0.0000 Z
    Strength   :     0.0000000000
    D(  147) --> V(    2) amplitude = -0.3301
    D(  149) --> V(    1) amplitude =  0.8479

 Excited state   2: excitation energy (eV) =    2.7494
 Total energy for state  2:                 -3617.21928770 au
    Multiplicity: Triplet
    Trans. Mom.:  0.0000 X   0.0000 Y   0.0000 Z
    Strength   :     0.0000000000
    D(  147) --> V(    1) amplitude =  0.5972
    D(  148) --> V(    2) amplitude = -0.2768
    D(  149) --> V(    2) amplitude = -0.5770

 Excited state   3: excitation energy (eV) =    3.0249
 Total energy for state  3:                 -3617.20916148 au
    Multiplicity: Triplet
    Trans. Mom.:  0.0000 X   0.0000 Y   0.0000 Z
    Strength   :     0.0000000000
    D(  147) --> V(    2) amplitude = -0.4800
    D(  148) --> V(    1) amplitude =  0.5842
    D(  149) --> V(    3) amplitude =  0.4042

 Excited state   4: excitation energy (eV) =    3.4522
 Total energy for state  4:                 -3617.19345822 au
    Multiplicity: Singlet
    Trans. Mom.: -5.3393 X   0.5308 Y   0.2929 Z
    Strength   :     2.4422335258
    D(  147) --> V(    2) amplitude = -0.2957
    D(  149) --> V(    1) amplitude =  0.9228

 Excited state   5: excitation energy (eV) =    3.4779
 Total energy for state  5:                 -3617.19251404 au
    Multiplicity: Triplet
    Trans. Mom.:  0.0000 X   0.0000 Y   0.0000 Z
    Strength   :     0.0000000000
    D(  145) --> V(    1) amplitude =  0.3444
    D(  146) --> V(    2) amplitude = -0.3165
    D(  147) --> V(    3) amplitude =  0.4307
    D(  148) --> V(    2) amplitude = -0.2646
    D(  149) --> V(    4) amplitude = -0.3333
    D(  149) --> V(    6) amplitude = -0.2225

 Excited state   6: excitation energy (eV) =    3.5526
 Total energy for state  6:                 -3617.18976919 au
    Multiplicity: Triplet
    Trans. Mom.:  0.0000 X   0.0000 Y   0.0000 Z
    Strength   :     0.0000000000
    D(  146) --> V(    1) amplitude = -0.4163
    D(  147) --> V(    4) amplitude =  0.2508
    D(  148) --> V(    1) amplitude =  0.5294
    D(  148) --> V(    3) amplitude = -0.3843

 Excited state   7: excitation energy (eV) =    3.8259
 Total energy for state  7:                 -3617.17972460 au
    Multiplicity: Triplet
    Trans. Mom.:  0.0000 X   0.0000 Y   0.0000 Z
    Strength   :     0.0000000000
    D(  139) --> V(    1) amplitude = -0.2307
    D(  148) --> V(    1) amplitude = -0.2669
    D(  148) --> V(    5) amplitude = -0.4566
    D(  149) --> V(    5) amplitude =  0.4808

 Excited state   8: excitation energy (eV) =    3.9349
 Total energy for state  8:                 -3617.17571861 au
    Multiplicity: Triplet
    Trans. Mom.:  0.0000 X   0.0000 Y   0.0000 Z
    Strength   :     0.0000000000
    D(  139) --> V(    1) amplitude = -0.2435
    D(  140) --> V(    2) amplitude = -0.2127
    D(  146) --> V(    1) amplitude =  0.2222
    D(  146) --> V(    3) amplitude = -0.2817
    D(  148) --> V(    5) amplitude =  0.3175
    D(  149) --> V(    5) amplitude = -0.3319
    D(  149) --> V(   14) amplitude = -0.2683

 Excited state   9: excitation energy (eV) =    3.9613
 Total energy for state  9:                 -3617.17475135 au
    Multiplicity: Triplet
    Trans. Mom.:  0.0000 X   0.0000 Y   0.0000 Z
    Strength   :     0.0000000000
    D(  139) --> V(    2) amplitude =  0.2187
    D(  140) --> V(    1) amplitude =  0.3429
    D(  148) --> V(    2) amplitude = -0.3107
    D(  148) --> V(    4) amplitude =  0.2354
    D(  149) --> V(   19) amplitude = -0.2517

 Excited state  10: excitation energy (eV) =    3.9815
 Total energy for state 10:                 -3617.17400758 au
    Multiplicity: Singlet
    Trans. Mom.: -1.4849 X  -0.5895 Y  -0.3007 Z
    Strength   :     0.2578002155
    D(  148) --> V(    1) amplitude =  0.8492
    D(  149) --> V(    5) amplitude = -0.2392

 Excited state  11: excitation energy (eV) =    4.0357
 Total energy for state 11:                 -3617.17201547 au
    Multiplicity: Singlet
    Trans. Mom.: -0.0179 X  -0.0039 Y  -0.0018 Z
    Strength   :     0.0000334817
    D(  147) --> V(    1) amplitude = -0.6234
    D(  148) --> V(    2) amplitude =  0.2330
    D(  149) --> V(    2) amplitude =  0.6712

 Excited state  12: excitation energy (eV) =    4.2313
 Total energy for state 12:                 -3617.16482573 au
    Multiplicity: Triplet
    Trans. Mom.:  0.0000 X   0.0000 Y   0.0000 Z
    Strength   :     0.0000000000
    D(  141) --> V(    1) amplitude = -0.6038
    D(  141) --> V(    2) amplitude =  0.2300
    D(  142) --> V(    2) amplitude = -0.5363

 Excited state  13: excitation energy (eV) =    4.2326
 Total energy for state 13:                 -3617.16478138 au
    Multiplicity: Triplet
    Trans. Mom.:  0.0000 X   0.0000 Y   0.0000 Z
    Strength   :     0.0000000000
    D(  141) --> V(    2) amplitude = -0.5296
    D(  142) --> V(    1) amplitude = -0.6007
    D(  142) --> V(    2) amplitude = -0.2344

 Excited state  14: excitation energy (eV) =    4.6032
 Total energy for state 14:                 -3617.15115898 au
    Multiplicity: Singlet
    Trans. Mom.:  0.0007 X   0.0004 Y   0.0004 Z
    Strength   :     0.0000000850
    D(  147) --> V(    1) amplitude =  0.5065
    D(  148) --> V(    2) amplitude = -0.4495
    D(  149) --> V(    2) amplitude =  0.6022

 Excited state  15: excitation energy (eV) =    4.6315
 Total energy for state 15:                 -3617.15012061 au
    Multiplicity: Singlet
    Trans. Mom.:  1.3656 X  -0.2784 Y   0.1428 Z
    Strength   :     0.2227208933
    D(  146) --> V(    1) amplitude = -0.3903
    D(  147) --> V(    2) amplitude =  0.4739
    D(  148) --> V(    3) amplitude = -0.2868
    D(  148) --> V(    5) amplitude =  0.2192
    D(  149) --> V(    3) amplitude = -0.3875
    D(  149) --> V(    5) amplitude = -0.4049

 Excited state  16: excitation energy (eV) =    4.8032
 Total energy for state 16:                 -3617.14380889 au
    Multiplicity: Singlet
    Trans. Mom.:  0.8438 X   0.5424 Y  -0.0076 Z
    Strength   :     0.1184245151
    D(  147) --> V(    4) amplitude = -0.2599
    D(  148) --> V(    1) amplitude = -0.2736
    D(  149) --> V(    3) amplitude =  0.5784
    D(  149) --> V(    5) amplitude = -0.4718

 Excited state  17: excitation energy (eV) =    4.8779
 Total energy for state 17:                 -3617.14106562 au
    Multiplicity: Singlet
    Trans. Mom.:  0.0049 X   0.0044 Y  -0.0005 Z
    Strength   :     0.0000052035
    D(  147) --> V(    3) amplitude = -0.4615
    D(  148) --> V(    2) amplitude =  0.4169
    D(  149) --> V(    4) amplitude =  0.4954
    D(  149) --> V(    6) amplitude =  0.2358

 Excited state  18: excitation energy (eV) =    5.0152
 Total energy for state 18:                 -3617.13601954 au
    Multiplicity: Singlet
    Trans. Mom.:  0.0030 X   0.0020 Y   0.0001 Z
    Strength   :     0.0000015838
    D(  147) --> V(    1) amplitude = -0.3340
    D(  148) --> V(    2) amplitude = -0.3354
    D(  149) --> V(    4) amplitude =  0.3526
    D(  149) --> V(   10) amplitude =  0.4359
    D(  149) --> V(   13) amplitude =  0.2602

 Excited state  19: excitation energy (eV) =    5.1041
 Total energy for state 19:                 -3617.13275170 au
    Multiplicity: Singlet
    Trans. Mom.: -0.3092 X  -0.7934 Y  -0.1237 Z
    Strength   :     0.0925870385
    D(  141) --> V(    1) amplitude = -0.2238
    D(  146) --> V(    1) amplitude = -0.3224
    D(  148) --> V(    3) amplitude = -0.2123
    D(  148) --> V(    5) amplitude = -0.2334
    D(  149) --> V(    5) amplitude =  0.4263
    D(  149) --> V(   12) amplitude =  0.3015
    D(  149) --> V(   15) amplitude =  0.2612

 Excited state  20: excitation energy (eV) =    5.1310
 Total energy for state 20:                 -3617.13176474 au
    Multiplicity: Singlet
    Trans. Mom.:  0.0031 X   0.0134 Y   0.0011 Z
    Strength   :     0.0000239509
    D(  141) --> V(    2) amplitude =  0.2627
    D(  142) --> V(    1) amplitude =  0.3625
    D(  146) --> V(    2) amplitude =  0.2679
    D(  148) --> V(    2) amplitude = -0.2595
    D(  148) --> V(    4) amplitude =  0.2373
    D(  149) --> V(    6) amplitude =  0.4904
    D(  149) --> V(   10) amplitude = -0.2440
 
 ---------------------------------------------------
  SETman timing summary (seconds)
  CPU time            963407.87s
  System time              0.10s
  Wall time            41848.49s
 
 --------------------------------------------------------------
 
                    Orbital Energies (a.u.)
 --------------------------------------------------------------
 
 Alpha MOs
 -- Occupied --
-88.9640 -88.9640 -88.9606 -88.9606 -88.9586 -88.9586 -19.2264 -19.2264
-10.3144 -10.3144 -10.2982 -10.2982 -10.2933 -10.2933 -10.2925 -10.2925
-10.2917 -10.2917 -10.2899 -10.2899 -10.2862 -10.2862 -10.2747 -10.2747
-10.2684 -10.2684 -10.2583 -10.2583 -10.2578 -10.2578 -10.2562 -10.2562
-10.2538 -10.2538 -10.2532 -10.2532  -8.0414  -8.0414  -8.0379  -8.0379
 -8.0360  -8.0359  -6.0047  -6.0047  -6.0012  -6.0012  -6.0012  -6.0012
 -5.9998  -5.9997  -5.9986  -5.9986  -5.9975  -5.9975  -5.9961  -5.9961
 -5.9952  -5.9952  -5.9923  -5.9923  -1.1503  -1.1490  -0.9980  -0.9926
 -0.9857  -0.9751  -0.9660  -0.9594  -0.9068  -0.8688  -0.8637  -0.8527
 -0.8328  -0.8320  -0.8273  -0.8203  -0.8169  -0.8136  -0.7962  -0.7956
 -0.7817  -0.7686  -0.7427  -0.7141  -0.6807  -0.6750  -0.6609  -0.6607
 -0.6538  -0.6371  -0.6345  -0.6258  -0.6106  -0.6081  -0.6009  -0.5996
 -0.5871  -0.5846  -0.5802  -0.5656  -0.5487  -0.5408  -0.5398  -0.5367
 -0.5286  -0.5234  -0.5106  -0.4919  -0.4908  -0.4904  -0.4885  -0.4821
 -0.4808  -0.4791  -0.4784  -0.4709  -0.4699  -0.4697  -0.4611  -0.4607
 -0.4510  -0.4469  -0.4469  -0.4392  -0.4389  -0.4348  -0.4263  -0.4257
 -0.4223  -0.4187  -0.4138  -0.4106  -0.4043  -0.4034  -0.3788  -0.3575
 -0.3556  -0.3529  -0.3387  -0.3332  -0.3199  -0.3198  -0.3160  -0.3159
 -0.3157  -0.2986  -0.2672  -0.2656  -0.2412
 -- Virtual --
 -0.0390  -0.0172   0.0065   0.0212   0.0221   0.0240   0.0261   0.0294
  0.0348   0.0367   0.0368   0.0401   0.0408   0.0420   0.0440   0.0450
  0.0490   0.0497   0.0541   0.0554   0.0565   0.0578   0.0608   0.0609
  0.0640   0.0672   0.0678   0.0690   0.0700   0.0728   0.0728   0.0779
  0.0782   0.0804   0.0832   0.0865   0.0886   0.0928   0.0945   0.0985
  0.1015   0.1016   0.1049   0.1062   0.1080   0.1105   0.1109   0.1131
  0.1182   0.1206   0.1221   0.1225   0.1234   0.1272   0.1299   0.1351
  0.1352   0.1373   0.1419   0.1435   0.1435   0.1477   0.1506   0.1524
  0.1528   0.1553   0.1571   0.1573   0.1604   0.1659   0.1663   0.1679
  0.1712   0.1717   0.1722   0.1733   0.1747   0.1775   0.1800   0.1807
  0.1849   0.1850   0.1887   0.1896   0.1899   0.1911   0.1956   0.1959
  0.1995   0.2026   0.2029   0.2034   0.2042   0.2093   0.2110   0.2124
  0.2162   0.2185   0.2188   0.2197   0.2205   0.2222   0.2238   0.2261
  0.2265   0.2287   0.2322   0.2325   0.2335   0.2369   0.2372   0.2392
  0.2404   0.2427   0.2427   0.2456   0.2470   0.2487   0.2504   0.2537
  0.2540   0.2563   0.2584   0.2594   0.2605   0.2614   0.2644   0.2666
  0.2679   0.2719   0.2733   0.2738   0.2747   0.2761   0.2803   0.2819
  0.2846   0.2862   0.2893   0.2918   0.2927   0.2956   0.2957   0.2983
  0.2997   0.3006   0.3014   0.3020   0.3027   0.3052   0.3078   0.3087
  0.3089   0.3110   0.3119   0.3142   0.3145   0.3165   0.3173   0.3205
  0.3221   0.3226   0.3227   0.3235   0.3263   0.3263   0.3279   0.3304
  0.3309   0.3326   0.3359   0.3391   0.3397   0.3412   0.3413   0.3445
  0.3460   0.3467   0.3479   0.3498   0.3513   0.3546   0.3554   0.3561
  0.3598   0.3613   0.3615   0.3630   0.3651   0.3667   0.3673   0.3680
  0.3712   0.3724   0.3735   0.3757   0.3777   0.3799   0.3812   0.3817
  0.3834   0.3836   0.3876   0.3891   0.3891   0.3902   0.3919   0.3927
  0.3954   0.3974   0.3978   0.4018   0.4024   0.4036   0.4040   0.4057
  0.4062   0.4093   0.4093   0.4132   0.4132   0.4144   0.4162   0.4167
  0.4185   0.4221   0.4226   0.4247   0.4259   0.4278   0.4285   0.4301
  0.4318   0.4319   0.4370   0.4390   0.4394   0.4422   0.4425   0.4433
  0.4433   0.4472   0.4506   0.4507   0.4521   0.4556   0.4559   0.4570
  0.4575   0.4620   0.4631   0.4642   0.4654   0.4662   0.4683   0.4720
  0.4722   0.4756   0.4757   0.4777   0.4779   0.4824   0.4824   0.4849
  0.4858   0.4860   0.4884   0.4893   0.4907   0.4940   0.4953   0.4971
  0.4999   0.5021   0.5022   0.5049   0.5077   0.5084   0.5118   0.5123
  0.5138   0.5146   0.5174   0.5219   0.5255   0.5281   0.5298   0.5314
  0.5332   0.5333   0.5349   0.5398   0.5427   0.5456   0.5464   0.5467
  0.5515   0.5557   0.5564   0.5576   0.5605   0.5618   0.5630   0.5658
  0.5675   0.5685   0.5714   0.5722   0.5769   0.5779   0.5836   0.5841
  0.5887   0.5896   0.5897   0.5923   0.5964   0.5977   0.5984   0.6005
  0.6019   0.6035   0.6059   0.6078   0.6090   0.6113   0.6126   0.6182
  0.6207   0.6227   0.6229   0.6257   0.6273   0.6323   0.6331   0.6364
  0.6371   0.6380   0.6388   0.6457   0.6465   0.6473   0.6515   0.6520
  0.6546   0.6556   0.6588   0.6603   0.6618   0.6650   0.6669   0.6688
  0.6708   0.6719   0.6726   0.6803   0.6805   0.6826   0.6847   0.6857
  0.6885   0.6898   0.6904   0.6936   0.6948   0.6950   0.6978   0.6984
  0.7009   0.7020   0.7046   0.7053   0.7058   0.7098   0.7105   0.7119
  0.7136   0.7162   0.7168   0.7195   0.7250   0.7254   0.7280   0.7282
  0.7315   0.7335   0.7351   0.7371   0.7381   0.7395   0.7399   0.7426
  0.7451   0.7454   0.7483   0.7504   0.7541   0.7545   0.7549   0.7577
  0.7582   0.7602   0.7613   0.7630   0.7631   0.7659   0.7666   0.7693
  0.7697   0.7733   0.7743   0.7744   0.7789   0.7796   0.7824   0.7829
  0.7836   0.7854   0.7860   0.7872   0.7898   0.7904   0.7913   0.7948
  0.7951   0.7978   0.7996   0.8010   0.8056   0.8064   0.8084   0.8123
  0.8147   0.8159   0.8175   0.8212   0.8215   0.8246   0.8253   0.8260
  0.8270   0.8288   0.8338   0.8338   0.8390   0.8413   0.8419   0.8450
  0.8457   0.8485   0.8485   0.8522   0.8539   0.8539   0.8565   0.8583
  0.8607   0.8622   0.8644   0.8645   0.8650   0.8675   0.8679   0.8724
  0.8780   0.8796   0.8797   0.8834   0.8839   0.8873   0.8919   0.8926
  0.8951   0.8967   0.8996   0.9048   0.9052   0.9078   0.9133   0.9145
  0.9146   0.9158   0.9205   0.9233   0.9239   0.9267   0.9287   0.9318
  0.9342   0.9347   0.9418   0.9442   0.9451   0.9467   0.9493   0.9513
  0.9549   0.9566   0.9602   0.9633   0.9638   0.9646   0.9698   0.9704
  0.9733   0.9747   0.9755   0.9824   0.9857   0.9891   0.9946   0.9965
  0.9983   0.9990   1.0007   1.0027   1.0055   1.0101   1.0104   1.0172
  1.0184   1.0191   1.0234   1.0267   1.0279   1.0321   1.0350   1.0418
  1.0428   1.0432   1.0476   1.0530   1.0558   1.0574   1.0587   1.0610
  1.0696   1.0707   1.0740   1.0752   1.0852   1.0864   1.0896   1.0940
  1.0971   1.0980   1.0993   1.1019   1.1026   1.1105   1.1138   1.1177
  1.1213   1.1229   1.1235   1.1264   1.1336   1.1406   1.1412   1.1439
  1.1459   1.1514   1.1515   1.1521   1.1562   1.1643   1.1667   1.1744
  1.1775   1.1785   1.1809   1.1833   1.1860   1.1878   1.1917   1.1948
  1.1987   1.2014   1.2037   1.2059   1.2101   1.2168   1.2248   1.2257
  1.2332   1.2358   1.2371   1.2426   1.2467   1.2560   1.2562   1.2581
  1.2638   1.2650   1.2733   1.2765   1.2820   1.2860   1.2862   1.2895
  1.2970   1.2973   1.3042   1.3083   1.3088   1.3134   1.3194   1.3198
  1.3262   1.3293   1.3312   1.3414   1.3416   1.3454   1.3565   1.3623
  1.3634   1.3766   1.3808   1.3810   1.3866   1.3937   1.3964   1.3990
  1.4035   1.4047   1.4136   1.4161   1.4181   1.4261   1.4287   1.4362
  1.4374   1.4421   1.4432   1.4479   1.4495   1.4517   1.4599   1.4643
  1.4659   1.4664   1.4708   1.4710   1.4729   1.4822   1.4840   1.4864
  1.4895   1.4906   1.4926   1.4932   1.4945   1.5000   1.5059   1.5099
  1.5132   1.5134   1.5152   1.5182   1.5276   1.5302   1.5334   1.5367
  1.5412   1.5413   1.5445   1.5508   1.5514   1.5568   1.5571   1.5668
  1.5748   1.5797   1.5888   1.5892   1.5985   1.6033   1.6070   1.6118
  1.6146   1.6180   1.6262   1.6286   1.6287   1.6344   1.6445   1.6511
  1.6545   1.6606   1.6626   1.6672   1.6693   1.6699   1.6709   1.6774
  1.6791   1.6846   1.6880   1.6923   1.6947   1.6954   1.6988   1.7047
  1.7075   1.7130   1.7180   1.7198   1.7206   1.7220   1.7314   1.7353
  1.7376   1.7393   1.7397   1.7438   1.7465   1.7514   1.7519   1.7519
  1.7635   1.7645   1.7675   1.7703   1.7725   1.7753   1.7815   1.7825
  1.7845   1.7847   1.7878   1.7898   1.7938   1.7963   1.8024   1.8028
  1.8052   1.8137   1.8151   1.8181   1.8196   1.8204   1.8266   1.8273
  1.8323   1.8340   1.8343   1.8428   1.8498   1.8534   1.8586   1.8617
  1.8693   1.8707   1.8788   1.8804   1.8860   1.8872   1.8920   1.8921
  1.9043   1.9054   1.9182   1.9248   1.9261   1.9277   1.9347   1.9369
  1.9435   1.9461   1.9504   1.9526   1.9559   1.9571   1.9575   1.9591
  1.9613   1.9624   1.9688   1.9742   1.9750   1.9825   1.9848   1.9909
  1.9919   2.0010   2.0015   2.0078   2.0136   2.0148   2.0162   2.0232
  2.0241   2.0261   2.0376   2.0465   2.0542   2.0544   2.0562   2.0659
  2.0668   2.0703   2.0735   2.0791   2.0804   2.0893   2.0910   2.0949
  2.0957   2.1046   2.1058   2.1103   2.1128   2.1132   2.1179   2.1273
  2.1278   2.1333   2.1388   2.1415   2.1443   2.1489   2.1567   2.1590
  2.1601   2.1619   2.1630   2.1685   2.1728   2.1838   2.1880   2.1922
  2.1936   2.2007   2.2015   2.2041   2.2118   2.2155   2.2185   2.2251
  2.2253   2.2259   2.2300   2.2340   2.2367   2.2405   2.2410   2.2474
  2.2571   2.2633   2.2739   2.2756   2.2764   2.2832   2.2834   2.2851
  2.2907   2.2934   2.3080   2.3087   2.3113   2.3126   2.3150   2.3170
  2.3213   2.3247   2.3260   2.3283   2.3344   2.3413   2.3555   2.3617
  2.3626   2.3633   2.3697   2.3711   2.3743   2.3850   2.3910   2.3956
  2.4035   2.4080   2.4086   2.4141   2.4200   2.4262   2.4266   2.4388
  2.4454   2.4536   2.4625   2.4637   2.4682   2.4687   2.4736   2.4757
  2.4844   2.4901   2.5116   2.5117   2.5200   2.5273   2.5354   2.5409
  2.5466   2.5614   2.5717   2.5821   2.5948   2.5950   2.6053   2.6104
  2.6125   2.6394   2.6401   2.6551   2.6599   2.6620   2.6689   2.6779
  2.6811   2.6908   2.6970   2.7054   2.7122   2.7150   2.7191   2.7362
  2.7376   2.7416   2.7444   2.7496   2.7566   2.7641   2.7692   2.7716
  2.7791   2.7925   2.7938   2.7985   2.8052   2.8086   2.8134   2.8182
  2.8196   2.8361   2.8362   2.8418   2.8545   2.8567   2.8581   2.8601
  2.8718   2.8748   2.8810   2.8902   2.8904   2.9029   2.9054   2.9177
  2.9198   2.9200   2.9270   2.9303   2.9321   2.9491   2.9495   2.9516
  2.9559   2.9615   2.9623   2.9695   2.9738   2.9854   2.9910   3.0036
  3.0096   3.0124   3.0184   3.0247   3.0288   3.0324   3.0362   3.0394
  3.0411   3.0548   3.0599   3.0649   3.0730   3.0766   3.0795   3.0807
  3.0840   3.0883   3.0889   3.0961   3.1033   3.1075   3.1105   3.1134
  3.1180   3.1217   3.1248   3.1280   3.1316   3.1317   3.1343   3.1385
  3.1386   3.1408   3.1445   3.1556   3.1575   3.1608   3.1666   3.1677
  3.1686   3.1702   3.1743   3.1818   3.1846   3.1923   3.1981   3.2011
  3.2051   3.2074   3.2120   3.2164   3.2171   3.2258   3.2299   3.2333
  3.2347   3.2391   3.2427   3.2428   3.2505   3.2565   3.2577   3.2615
  3.2623   3.2627   3.2696   3.2747   3.2775   3.2812   3.2826   3.2856
  3.2899   3.2930   3.2963   3.3028   3.3034   3.3084   3.3116   3.3136
  3.3145   3.3244   3.3253   3.3283   3.3305   3.3319   3.3379   3.3418
  3.3439   3.3443   3.3501   3.3509   3.3574   3.3605   3.3692   3.3694
  3.3731   3.3755   3.3777   3.3819   3.3859   3.3884   3.3942   3.4015
  3.4044   3.4080   3.4117   3.4148   3.4189   3.4228   3.4233   3.4287
  3.4321   3.4377   3.4401   3.4410   3.4461   3.4559   3.4646   3.4687
  3.4724   3.4786   3.4789   3.4831   3.4841   3.4892   3.4963   3.4980
  3.5015   3.5070   3.5091   3.5136   3.5168   3.5202   3.5204   3.5269
  3.5289   3.5337   3.5375   3.5445   3.5540   3.5561   3.5586   3.5610
  3.5648   3.5659   3.5753   3.5771   3.5803   3.5822   3.5869   3.5894
  3.5954   3.5963   3.5985   3.6041   3.6108   3.6156   3.6179   3.6212
  3.6225   3.6241   3.6287   3.6328   3.6393   3.6398   3.6430   3.6475
  3.6555   3.6564   3.6582   3.6623   3.6650   3.6733   3.6808   3.6835
  3.6840   3.6863   3.6889   3.6933   3.7040   3.7041   3.7069   3.7098
  3.7173   3.7221   3.7272   3.7273   3.7403   3.7421   3.7475   3.7531
  3.7586   3.7674   3.7692   3.7698   3.7753   3.7766   3.7849   3.7890
  3.7927   3.7931   3.7989   3.8028   3.8083   3.8126   3.8172   3.8198
  3.8308   3.8347   3.8428   3.8436   3.8493   3.8506   3.8570   3.8578
  3.8679   3.8695   3.8766   3.8800   3.8827   3.8924   3.8954   3.9021
  3.9027   3.9088   3.9128   3.9171   3.9265   3.9267   3.9386   3.9445
  3.9460   3.9470   3.9490   3.9567   3.9587   3.9624   3.9664   3.9708
  3.9812   3.9898   3.9967   3.9980   4.0034   4.0043   4.0078   4.0154
  4.0161   4.0216   4.0272   4.0348   4.0449   4.0458   4.0491   4.0547
  4.0628   4.0656   4.0689   4.0708   4.0712   4.0861   4.0921   4.1210
  4.1218   4.1293   4.1332   4.1370   4.1408   4.1426   4.1548   4.1570
  4.1616   4.1619   4.1678   4.1697   4.1869   4.1922   4.1937   4.2054
  4.2055   4.2064   4.2147   4.2273   4.2319   4.2408   4.2448   4.2522
  4.2546   4.2622   4.2640   4.2731   4.2776   4.2798   4.2835   4.2838
  4.2886   4.2921   4.2953   4.2986   4.3120   4.3128   4.3149   4.3180
  4.3315   4.3345   4.3399   4.3435   4.3454   4.3626   4.3647   4.3673
  4.3726   4.3774   4.3780   4.3804   4.3860   4.3930   4.3971   4.4148
  4.4199   4.4295   4.4367   4.4387   4.4404   4.4426   4.4475   4.4515
  4.4606   4.4730   4.4764   4.4790   4.4798   4.4897   4.4925   4.4996
  4.5043   4.5074   4.5158   4.5401   4.5429   4.5494   4.5526   4.5573
  4.5622   4.5810   4.5812   4.5861   4.5896   4.5985   4.6110   4.6182
  4.6318   4.6416   4.6448   4.6496   4.6521   4.6797   4.6885   4.7023
  4.7027   4.7153   4.7182   4.7223   4.7276   4.7290   4.7420   4.7451
  4.7503   4.7524   4.7561   4.7818   4.7822   4.7957   4.7990   4.8063
  4.8105   4.8255   4.8272   4.8430   4.8443   4.8678   4.8811   4.8816
  4.8821   4.8853   4.8915   4.8965   4.9315   4.9555   4.9558   4.9749
  4.9985   5.0019   5.0220   5.0293   5.0666   5.0710   5.0877   5.0917
  5.0992   5.1034   5.1053   5.1231   5.1255   5.1318   5.1389   5.1592
  5.1651   5.1703   5.1898   5.2098   5.2123   5.2141   5.2200   5.2287
  5.2357   5.2401   5.2501   5.2541   5.2576   5.2625   5.2845   5.2859
  5.2919   5.2932   5.3018   5.3022   5.3125   5.3175   5.3281   5.3300
  5.3338   5.3383   5.3403   5.3435   5.3669   5.3872   5.3920   5.3961
  5.3983   5.4090   5.4244   5.4346   5.4412   5.4451   5.4596   5.4717
  5.5027   5.5029   5.5338   5.5352   5.5599   5.6007   5.6131   5.6276
  5.6345   5.6413   5.6523   5.6661   5.6787   5.6980   5.7213   5.7251
  5.7478   5.7527   5.7605   5.7681   5.7775   5.7863   5.7930   5.8036
  5.8584   5.8673   5.8724   5.8732   5.9028   5.9190   5.9775   5.9867
  5.9981   6.0452   6.0728   6.0732   6.2291   6.2300   6.2840   6.3040
  6.3044   6.3398   6.4149   6.4215   6.4760   6.5883   6.6824   6.7052
  6.8983   6.8983   6.9122   6.9124   6.9270   6.9280   6.9343   6.9371
  6.9491   6.9512   6.9602   6.9688   7.0015   7.0037   7.0052   7.0443
  7.0444   7.0498   7.0643   7.0660   7.0932   7.1137   7.1170   7.1219
  7.1286   7.1288   7.1463   7.1764   7.2488   7.3012   7.5022   7.5069
  7.5342   7.5343   7.5401   7.5447   7.5501   7.5593   7.5935   7.6029
  9.1155   9.1159   9.1595   9.1596   9.1849   9.1893   9.6258   9.6262
  9.6700   9.6706   9.6898   9.6898   9.6998   9.7019   9.7090   9.7191
  9.7571   9.7750  20.7614  20.7661  20.8995  20.9017  21.0035  21.0165
 22.8364  22.8668  22.8751  22.9414  22.9446  23.0429  23.1300  23.1312
 23.1422  23.1725  23.1901  23.2202  23.3051  23.3546  23.3815  23.3975
 23.4182  23.4945  23.5037  23.6064  23.6145  23.6899  23.6903  23.7819
 23.7963  23.8222  23.8346  23.9639  44.7030  44.7684
 --------------------------------------------------------------
 
          Ground-State Mulliken Net Atomic Charges

     Atom                 Charge (a.u.)
  ----------------------------------------
      1 C                    -0.083387
      2 C                    -0.294192
      3 C                    -0.366344
      4 C                     0.439097
      5 S                    -0.180521
      6 C                     0.327448
      7 C                    -0.211788
      8 C                    -0.429008
      9 C                     0.309091
     10 S                    -0.246688
     11 C                     0.327531
     12 C                    -0.211074
     13 C                    -0.427868
     14 C                     0.308787
     15 S                    -0.247274
     16 C                    -0.083708
     17 C                    -0.293919
     18 C                    -0.366295
     19 C                     0.439239
     20 S                    -0.180526
     21 C                     0.344330
     22 C                     0.407929
     23 C                    -0.123743
     24 C                     0.344598
     25 C                     0.407988
     26 C                    -0.123740
     27 C                    -0.265895
     28 C                     0.280637
     29 S                    -0.357023
     30 C                    -0.265274
     31 C                     0.280848
     32 S                    -0.357042
     33 O                    -0.597086
     34 C                    -0.495788
     35 O                    -0.597017
     36 C                    -0.496229
     37 H                     0.189564
     38 H                     0.132664
     39 H                     0.159411
     40 H                     0.127582
     41 H                     0.143013
     42 H                     0.127365
     43 H                     0.142990
     44 H                     0.189512
     45 H                     0.132665
     46 H                     0.159236
     47 H                     0.174436
     48 H                     0.174074
     49 H                     0.185650
     50 H                     0.208062
     51 H                     0.221830
     52 H                     0.185576
     53 H                     0.221881
     54 H                     0.208395
  ----------------------------------------
  Sum of atomic charges =     0.000000

 -----------------------------------------------------------------
                    Cartesian Multipole Moments
 -----------------------------------------------------------------
    Charge (ESU x 10^10)
                 0.0000
    Dipole Moment (Debye)
         X      -0.0056      Y      -0.0004      Z      -0.0022
       Tot       0.0060
    Quadrupole Moments (Debye-Ang)
        XX    -184.5568     XY      21.1436     YY    -222.2048
        XZ       7.0485     YZ      -6.3044     ZZ    -263.3514
    Octopole Moments (Debye-Ang^2)
       XXX     -53.8233    XXY      18.4327    XYY     -24.8921
       YYY      51.6096    XXZ      11.8062    XYZ      -2.4611
       YYZ      13.6039    XZZ     -26.2901    YZZ      21.1359
       ZZZ      44.9354
    Hexadecapole Moments (Debye-Ang^3)
      XXXX  -48508.9001   XXXY     455.7957   XXYY  -10012.1365
      XYYY     599.5731   YYYY   -3175.6770   XXXZ    1588.8105
      XXYZ     263.4974   XYYZ     146.7078   YYYZ    -217.0546
      XXZZ  -11027.8380   XYZZ     185.5974   YYZZ    -738.6524
      XZZZ     642.9540   YZZZ    -183.0991   ZZZZ    -673.3443
 -----------------------------------------------------------------
Archival summary:
1\1\qnode0403\SP\ProcedureUnspecified\BasisUnspecified\622818\ahs1068\FriAug623:35:252021FriAug623:35:252021\0\\#,ProcedureUnspecified,BasisUnspecified,\\0,1\S\C,1,1.74453\C,2,1.38564,1,126.055\O,3,1.36657,2,120.671,1,0.17326,0\C,3,1.39648,2,117.927,1,179.379,0\C,2,1.41393,1,111.461,3,179.448,0\C,6,1.39658,2,119.593,1,-179.446,0\O,7,1.36653,6,121.411,2,-179.234,0\C,7,1.38555,6,117.926,2,-0.035049,0\C,4,1.42358,3,113.716,2,-96.7796,0\H,10,1.08903,4,106.484,3,178.854,0\H,10,1.09499,4,110.966,3,59.6527,0\H,10,1.09552,4,111.024,3,-61.9956,0\C,8,1.42366,7,113.704,6,-83.8739,0\H,14,1.08902,8,106.484,7,-178.689,0\H,14,1.09495,8,110.951,7,-59.4776,0\H,14,1.09551,8,111.029,7,62.1573,0\C,5,1.4345,3,128.552,2,-178.058,0\H,18,1.08132,5,123.535,3,2.27448,0\C,18,1.35612,5,113.133,3,179.679,0\C,6,1.43451,2,111.837,1,2.1695,0\H,21,1.08133,6,123.526,2,175.909,0\C,21,1.35614,6,113.134,2,-1.49047,0\C,23,1.45458,21,126.612,6,-178.794,0\C,24,1.36835,23,127.3,21,33.0249,0\H,25,1.08179,24,122.533,23,2.98807,0\C,25,1.41607,24,113.213,23,-179.547,0\H,27,1.08164,25,124.328,24,-177.533,0\C,27,1.36816,25,113.214,24,-0.0609608,0\C,20,1.45461,18,126.61,5,178.792,0\C,30,1.36835,20,127.291,18,-33.1632,0\H,31,1.08179,30,122.529,20,-2.96704,0\C,31,1.41607,30,113.209,20,179.587,0\H,33,1.08165,31,124.328,30,177.55,0\C,33,1.36812,31,113.213,30,0.0457968,0\C,29,1.45612,27,127.261,25,179.277,0\C,36,1.368,29,127.125,27,-37.2359,0\H,37,1.08189,36,122.573,29,-3.1212,0\C,37,1.42079,36,113.119,29,178.491,0\H,39,1.08149,37,123.965,36,179.462,0\C,39,1.36067,37,112.605,36,0.427991,0\H,41,1.07923,39,128.379,37,179.391,0\C,35,1.45613,33,127.263,31,-179.272,0\C,43,1.36797,35,127.131,33,37.3463,0\H,44,1.08189,43,122.576,35,3.11048,0\C,44,1.42081,43,113.119,35,-178.484,0\H,46,1.08149,44,123.964,43,-179.468,0\C,46,1.36067,44,112.604,43,-0.421337,0\H,48,1.07923,46,128.38,44,-179.39,0\S,41,1.72007,39,111.813,37,-0.679381,0\S,48,1.72007,46,111.814,44,0.671999,0\S,29,1.73417,27,110.808,25,0.676714,0\S,35,1.73419,33,110.811,31,-0.662198,0\S,9,1.74451,7,126.053,6,-179.362,0\\\@

 Total job time:  45823.28s(wall), 1059561.81s(cpu) 
 Fri Aug  6 23:35:25 2021

        *************************************************************
        *                                                           *
        *  Thank you very much for using Q-Chem.  Have a nice day.  *
        *                                                           *
        *************************************************************


remove work dirs /tmp/qchem207511.0 -- /tmp/qchem207511.-1
rm -rf /tmp/qchem207511
