qc.in
qchem qc.in_103518.1 /tmp/qchem103518/ 0
/software/QChem/5.3/exe/qcprog.exe_s qc.in_103518.1 /tmp/qchem103518/
                  Welcome to Q-Chem
     A Quantum Leap Into The Future Of Chemistry


 Q-Chem 5.3, Q-Chem, Inc., Pleasanton, CA (2020)

 License issued to: SRG Mark Ratner, Northwestern University

 Yihan Shao,  Zhengting Gan,  E. Epifanovsky,  A. T. B. Gilbert,  M. Wormit,  
 J. Kussmann,  A. W. Lange,  A. Behn,  Jia Deng,  Xintian Feng,  D. Ghosh,  
 M. Goldey,  P. R. Horn,  L. D. Jacobson,  I. Kaliman,  T. Kus,  A. Landau,  
 Jie Liu,  E. I. Proynov,  R. M. Richard,  R. P. Steele,  E. J. Sundstrom,  
 H. L. Woodcock III,  P. M. Zimmerman,  D. Zuev,  B. Alam,  B. Albrecht,  
 A. Aldossary,  E. Alguire,  S. A. Baeppler,  D. Barton,  Z. Benda,  
 Y. A. Bernard,  E. J. Berquist,  K. B. Bravaya,  H. Burton,  K. Carter-Fenk,  
 D. Casanova,  Chun-Min Chang,  Yunqing Chen,  A. Chien,  K. D. Closser,  
 M. P. Coons,  S. Coriani,  S. Dasgupta,  A. L. Dempwolff,  M. Diedenhofen,  
 Hainam Do,  R. G. Edgar,  Po-Tung Fang,  S. Faraji,  S. Fatehi,  
 Qingguo Feng,  J. Fosso-Tande,  J. Gayvert,  Qinghui Ge,  A. Ghysels,  
 G. Gidofalvi,  J. Gomes,  J. Gonthier,  S. Gulania,  A. Gunina,  D. Hait,  
 M. W. D. Hanson-Heine,  S. Hammes-Schiffer,  P. H. P. Harbach,  
 A. W. Hauser,  M. F. Herbst,  J. E. Herr,  E. G. Hohenstein,  Z. C. Holden,  
 S. Houck,  Kerwin Hui,  B. C. Huynh,  M. Ivanov,  T.-C. Jagau,  Hyunjun Ji,  
 B. Kaduk,  K. Khistyaev,  Jaehoon Kim,  P. Klunzinger,  K. Koh,  
 D. Kosenkov,  L. Koulias,  T. Kowalczyk,  C. M. Krauter,  A. Kunitsa,  
 Ka Un Lao,  A. Laurent,  K. V. Lawler,  Joonho Lee,  D. Lefrancois,  
 S. Lehtola,  D. S. Levine,  Yi-Pei Li,  You-Sheng Lin,  Fenglai Liu,  
 Kuan-Yu Liu,  E. Livshits,  M. Loipersberger,  A. Luenser,  P. Manohar,  
 E. Mansoor,  S. F. Manzer,  Shan-Ping Mao,  Yuezhi Mao,  N. Mardirossian,  
 A. V. Marenich,  T. Markovich,  L. A. Martinez-Martinez,  S. A. Maurer,  
 N. J. Mayhall,  S. C. McKenzie,  J.-M. Mewes,  P. Morgante,  A. F. Morrison,  
 J. W. Mullinax,  K. Nanda,  T. S. Nguyen-Beck,  R. Olivares-Amaya,  
 K. J. Oosterbaan,  J. A. Parkhill,  S. K. Paul,  F. Pavosevic,  Zheng Pei,  
 T. M. Perrine,  F. Plasser,  P. Pokhilko,  S. Prager,  A. Prociuk,  
 E. Ramos,  B. Rana,  D. R. Rehn,  F. Rob,  E. Rossomme,  M. Scheurer,  
 M. Schneider,  N. Sergueev,  S. M. Sharada,  S. Sharma,  W. Skomorowski,  
 D. W. Small,  T. Stauch,  C. J. Stein,  T. Stein,  Yu-Chuan Su,  
 S. P. Veccham,  Zhen Tao,  A. J. W. Thom,  A. Tkatchenko,  T. Tsuchimochi,  
 N. M. Tubman,  L. Vogt,  M. L. Vidal,  O. Vydrov,  M. A. Watson,  J. Wenzel,  
 M. de Wergifosse,  T. A. Wesolowski,  A. White,  J. Witte,  A. Yamada,  
 Jun Yang,  K. Yao,  S. Yeganeh,  S. R. Yost,  Zhi-Qiang You,  A. Zech,  
 Igor Ying Zhang,  Xing Zhang,  Yan Zhao,  Ying Zhu,  B. R. Brooks,  
 G. K. L. Chan,  C. J. Cramer,  M. S. Gordon,  W. J. Hehre,  A. Klamt,  
 M. W. Schmidt,  C. D. Sherrill,  D. G. Truhlar,  A. Aspuru-Guzik,  R. Baer,  
 A. T. Bell,  N. A. Besley,  Jeng-Da Chai,  A. E. DePrince, III,  
 R. A. DiStasio Jr.,  A. Dreuw,  B. D. Dunietz,  T. R. Furlani,  
 Chao-Ping Hsu,  Yousung Jung,  Jing Kong,  D. S. Lambrecht,  WanZhen Liang,  
 C. Ochsenfeld,  V. A. Rassolov,  L. V. Slipchenko,  J. E. Subotnik,  
 T. Van Voorhis,  J. M. Herbert,  A. I. Krylov,  P. M. W. Gill,  M. Head-Gordon

 Contributors to earlier versions of Q-Chem not listed above: 
 R. D. Adamson,  B. Austin,  J. Baker,  G. J. O. Beran,  K. Brandhorst,  
 S. T. Brown,  E. F. C. Byrd,  A. K. Chakraborty,  C.-L. Cheng,  
 Siu Hung Chien,  D. M. Chipman,  D. L. Crittenden,  H. Dachsel,  
 R. J. Doerksen,  A. D. Dutoi,  L. Fusti-Molnar,  W. A. Goddard III,  
 A. Golubeva-Zadorozhnaya,  S. R. Gwaltney,  G. Hawkins,  A. Heyden,  
 S. Hirata,  G. Kedziora,  F. J. Keil,  C. Kelley,  Jihan Kim,  R. A. King,  
 R. Z. Khaliullin,  P. P. Korambath,  W. Kurlancheek,  A. M. Lee,  M. S. Lee,  
 S. V. Levchenko,  Ching Yeh Lin,  D. Liotard,  R. C. Lochan,  I. Lotan,  
 P. E. Maslen,  N. Nair,  D. P. O'Neill,  D. Neuhauser,  E. Neuscamman,  
 C. M. Oana,  R. Olson,  B. Peters,  R. Peverati,  P. A. Pieniazek,  
 Y. M. Rhee,  J. Ritchie,  M. A. Rohrdanz,  E. Rosta,  N. J. Russ,  
 H. F. Schaefer III,  N. E. Schultz,  N. Shenvi,  A. C. Simmonett,  A. Sodt,  
 D. Stuck,  K. S. Thanthiriwatte,  V. Vanovschi,  Tao Wang,  A. Warshel,  
 C. F. Williams,  Q. Wu,  X. Xu,  W. Zhang

 Please cite Q-Chem as follows:
 Y. Shao et al., Mol. Phys. 113, 184-215 (2015)
 DOI: 10.1080/00268976.2014.952696

 Q-Chem 5.3.1 for Intel X86 EM64T Linux

 Parts of Q-Chem use Armadillo 9.800.1 (Horizon Scraper).
 http://arma.sourceforge.net/

 Q-Chem begins on Wed Aug  4 20:32:33 2021  

Host: 
0

     Scratch files written to /tmp/qchem103518//
 Aug2920 |scratch|qcdevops|jenkins|workspace|build_RNUM 4082   
Processing $rem in /software/QChem/5.3/config/preferences:
Processing $rem in /home/ahs1068/.qchemrc:
The previous job contains 0 fragments, simply inherited here
Symmetry turned off for PCM/SM12/SMD calculation

Checking the input file for inconsistencies... 	...done.

--------------------------------------------------------------
User input:
--------------------------------------------------------------

$molecule
read
$end


$rem
METHOD         CAM-B3LYP
BASIS          def2-TZVPPD
CIS_N_ROOTS    10
SOLVENT_METHOD PCM
SCF_ALGORITHM  DIIS
SCF_MAX_CYCLES 100
THRESH         14
S2THRESH       15
MEM_TOTAL      100000

$end

$pcm
theory          iefpcm
method          swig
printlevel      1
$end

$solvent
dielectric 4.81
$end

--------------------------------------------------------------
 ----------------------------------------------------------------
             Standard Nuclear Orientation (Angstroms)
    I     Atom           X                Y                Z
 ----------------------------------------------------------------
    1      C      11.1140348396     0.6756162250     0.3414204985
    2      C      10.4611272503     1.1724130911     1.4270271359
    3      C       9.0733567126     0.8680961366     1.4167975185
    4      C       8.6904059874     0.1445171332     0.3205520199
    5      S      10.0456216132    -0.1550519775    -0.7213247799
    6      C       4.9002736771    -0.6347091808    -0.2967091584
    7      C       5.6261339663    -1.6678454316    -0.8243117281
    8      C       7.0245249581    -1.5071747305    -0.6672933692
    9      C       7.3653814757    -0.3505257828    -0.0214607921
   10      S       5.9496078103     0.5589816845     0.4009252578
   11      C      -4.8979370933     0.7489155310    -0.1122606140
   12      C      -5.6379443055     1.8386988505    -0.4824955647
   13      C      -7.0346325619     1.6286798530    -0.3768518946
   14      C      -7.3597215803     0.3797379621     0.0775203084
   15      S      -5.9301019709    -0.5434345376     0.4137843630
   16      C     -11.0803254445    -0.5632058429     0.7885211257
   17      C     -10.4362799706    -1.7145519857     0.4557896991
   18      C      -9.0598774010    -1.5078556248     0.1713075531
   19      C      -8.6761271682    -0.1999798342     0.2941463488
   20      S     -10.0167602231     0.7893837743     0.7789550605
   21      C      -1.3291835578    -0.3681139216    -0.1911577363
   22      C      -0.9937903923     1.0027455845    -0.1114971794
   23      C       0.3187547455     1.4465879057    -0.1073297867
   24      C       1.3324407229     0.4885465463    -0.1824930414
   25      C       0.9964698860    -0.8818740742    -0.2688825143
   26      C      -0.3158906092    -1.3257166443    -0.2723147251
   27      C      -2.7485649478    -0.5702439476    -0.2069254186
   28      C      -3.4547510007     0.5850171274    -0.1201233058
   29      S      -2.4201293820     2.0027578052    -0.0045312090
   30      C       2.7523207276     0.6904699528    -0.1819092014
   31      C       3.4573403497    -0.4650283558    -0.2710013434
   32      S       2.4216155826    -1.8846835006    -0.3515017513
   33      O       0.6063836140     2.7791919908    -0.0149312089
   34      C       0.8380296161     3.4037948896    -1.2737200781
   35      O      -0.6023862113    -2.6584072668    -0.3662686447
   36      C      -0.8526870767    -3.2805977893     0.8902910775
   37      H      12.1633497160     0.7519261464     0.1005044532
   38      H      10.9525934423     1.7258131844     2.2154586688
   39      H       8.3848778664     1.1488164245     2.2030918456
   40      H       5.1695783304    -2.5168331438    -1.3161387692
   41      H       7.7566523332    -2.2308155221    -1.0003969677
   42      H      -5.1946054531     2.7529985845    -0.8546740968
   43      H      -7.7774900370     2.3639405677    -0.6564574592
   44      H     -12.1205048074    -0.4271954979     1.0421169549
   45      H     -10.9264617650    -2.6771395552     0.4057308923
   46      H      -8.3807598421    -2.2919752975    -0.1370321088
   47      H      -3.2060617342    -1.5443316261    -0.3171867063
   48      H       3.2115258188     1.6682740082    -0.1248300314
   49      H       1.0513258037     4.4511357649    -1.0645285292
   50      H      -0.0466651935     3.3308767287    -1.9150117654
   51      H       1.6937564002     2.9501130456    -1.7850753388
   52      H      -1.0587966968    -4.3292307571     0.6803685900
   53      H      -1.7182677611    -2.8286613540     1.3863696986
   54      H       0.0210547396    -3.2026711462     1.5457383416
 ----------------------------------------------------------------
 Nuclear Repulsion Energy =        4356.38273447 hartrees
 There are      149 alpha and      149 beta electrons
 Requested basis set is def2-TZVPPD
 There are 620 shells and 1728 basis functions

 Total QAlloc Memory Limit 100000 MB
 Mega-Array Size       188 MB
 MEM_STATIC part       192 MB
 Discretize the solute cavity surface with Lebedev spheres
	Using 110 Lebedev grid points for each H atom
	Using 194 Lebedev grid points for other atoms
	Atomic van der Waals radii will be scaled by 1.20
 Remove points where switching function is < 1.0e-08
 Keep 3648 surface tesserae and discard 5316 interior tesserae
 Molecular Surface Area = 565.142 Angst**2
 A cutoff of  1.0D-15 yielded 107288 shell pairs
 There are    801172 function pairs (   1023816 Cartesian)
 Smallest overlap matrix eigenvalue = 1.22E-07
 Linear dependence detected in AO basis
 Number of orthogonalized atomic orbitals = 1715
 Maximum deviation from orthogonality = 2.715E-10

 Scale SEOQF with 1.000000e-02/1.000000e-01/1.000000e-01

 Standard Electronic Orientation quadrupole field applied
 Nucleus-field energy     =     0.0000000808 hartrees
 Guess from superposition of atomic densities
 Warning:  Energy on first SCF cycle will be non-variational
 SAD guess density has 298.000000 electrons

 -----------------------------------------------------------------------
  General SCF calculation program by
  Eric Jon Sundstrom, Paul Horn, Yuezhi Mao, Dmitri Zuev, Alec White,
  David Stuck, Shaama M.S., Shane Yost, Joonho Lee, David Small,
  Daniel Levine, Susi Lehtola, Hugh Burton, Evgeny Epifanovsky,
  Bang C. Huynh
 -----------------------------------------------------------------------
 Exchange:     0.1900 Hartree-Fock + 0.3500 B88 + 0.4600 muB88 + LR-HF
 Correlation:  0.1900 VWN5 + 0.8100 LYP
 Using SG-1 standard quadrature grid
 using 48 threads for integral computing
 -------------------------------------------------------
 OpenMP Integral computing Module                
 Release: version 1.0, May 2013, Q-Chem Inc. Pittsburgh 
 -------------------------------------------------------
 using 48 threads for integral computing
 -------------------------------------------------------
 OpenMP Integral computing Module                
 Release: version 1.0, May 2013, Q-Chem Inc. Pittsburgh 
 -------------------------------------------------------
 A restricted SCF calculation will be
 performed using DIIS
 SCF converges when DIIS error is below 1.0e-08
 ---------------------------------------
  Cycle       Energy         DIIS error
 ---------------------------------------
 BuildS Time: 1.19 s (CPU) 0.15 s (wall)
 Using non-symmetric K matrix
 Time req'd to invert K: 23.02 s (CPU) 0.49 s (wall)
 Warning: not using a symmetric Q

 ----------------Surface Charge Diagnostics-----------------
 Total Electronic Charge                   =            -298
 Total Nuclear Charge                      =             298
 Theoretical Electronic Surface Charge     =    2.360444e+02
 Theoretical Nuclear Surface Charge        =   -2.360444e+02
 Theoretical Total Surface Charge          =    0.000000e+00
 Total Electronic Surface Charge           =    2.381999e+02
 Total Nuclear Surface Charge              =   -2.382464e+02
 Total Surface Charge                      =   -4.649750e-02
 Electronic Surface Charge Gauss Law Error =    2.155443e+00
 Nuclear Surface Charge Gauss Law Error    =   -2.201941e+00
 Total Surface Charge Gauss Law Error      =   -4.649750e-02
 -----------------------------------------------------------
----------------------Components of G_es----------------------
  qN-ESPN =   -6287.67459727 a.u. = -3945575.36035553 kcal/mol
  qN-ESPe =    6288.70842929 a.u. = 3946224.09973924 kcal/mol
  qe-ESPN =    6288.42804207 a.u. = 3946048.15410137 kcal/mol
  qe-ESPe =   -6289.51024456 a.u. = -3946727.24641047 kcal/mol
  -------
  q-ESPN  =       0.75344480 a.u. =     472.79374584 kcal/mol
  q-ESPe  =      -0.80181526 a.u. =    -503.14667123 kcal/mol
---------------------------------------------------------------
    1   -3628.9811390597      1.22e-02  

 ----------------Surface Charge Diagnostics-----------------
 Total Electronic Charge                   =            -298
 Total Nuclear Charge                      =             298
 Theoretical Electronic Surface Charge     =    2.360444e+02
 Theoretical Nuclear Surface Charge        =   -2.360444e+02
 Theoretical Total Surface Charge          =    0.000000e+00
 Total Electronic Surface Charge           =    2.381825e+02
 Total Nuclear Surface Charge              =   -2.382464e+02
 Total Surface Charge                      =   -6.389358e-02
 Electronic Surface Charge Gauss Law Error =    2.138047e+00
 Nuclear Surface Charge Gauss Law Error    =   -2.201941e+00
 Total Surface Charge Gauss Law Error      =   -6.389358e-02
 -----------------------------------------------------------
----------------------Components of G_es----------------------
  qN-ESPN =   -6287.67459727 a.u. = -3945575.36035553 kcal/mol
  qN-ESPe =    6287.96054648 a.u. = 3945754.79618810 kcal/mol
  qe-ESPN =    6287.54574398 a.u. = 3945494.50369400 kcal/mol
  qe-ESPe =   -6287.86658721 a.u. = -3945695.83586032 kcal/mol
  -------
  q-ESPN  =      -0.12885329 a.u. =     -80.85666153 kcal/mol
  q-ESPe  =       0.09395926 a.u. =      58.96032777 kcal/mol
---------------------------------------------------------------
    2   -3616.9748889190      9.59e-04  

 ----------------Surface Charge Diagnostics-----------------
 Total Electronic Charge                   =            -298
 Total Nuclear Charge                      =             298
 Theoretical Electronic Surface Charge     =    2.360444e+02
 Theoretical Nuclear Surface Charge        =   -2.360444e+02
 Theoretical Total Surface Charge          =    0.000000e+00
 Total Electronic Surface Charge           =    2.381895e+02
 Total Nuclear Surface Charge              =   -2.382464e+02
 Total Surface Charge                      =   -5.689379e-02
 Electronic Surface Charge Gauss Law Error =    2.145047e+00
 Nuclear Surface Charge Gauss Law Error    =   -2.201941e+00
 Total Surface Charge Gauss Law Error      =   -5.689379e-02
 -----------------------------------------------------------
----------------------Components of G_es----------------------
  qN-ESPN =   -6287.67459727 a.u. = -3945575.36035553 kcal/mol
  qN-ESPe =    6288.08587615 a.u. = 3945833.44174258 kcal/mol
  qe-ESPN =    6287.71475589 a.u. = 3945600.56026829 kcal/mol
  qe-ESPe =   -6288.15313427 a.u. = -3945875.64684964 kcal/mol
  -------
  q-ESPN  =       0.04015862 a.u. =      25.19991276 kcal/mol
  q-ESPe  =      -0.06725812 a.u. =     -42.20510706 kcal/mol
---------------------------------------------------------------
    3   -3617.0159323707      9.38e-04  

 ----------------Surface Charge Diagnostics-----------------
 Total Electronic Charge                   =            -298
 Total Nuclear Charge                      =             298
 Theoretical Electronic Surface Charge     =    2.360444e+02
 Theoretical Nuclear Surface Charge        =   -2.360444e+02
 Theoretical Total Surface Charge          =    0.000000e+00
 Total Electronic Surface Charge           =    2.381904e+02
 Total Nuclear Surface Charge              =   -2.382464e+02
 Total Surface Charge                      =   -5.595778e-02
 Electronic Surface Charge Gauss Law Error =    2.145983e+00
 Nuclear Surface Charge Gauss Law Error    =   -2.201941e+00
 Total Surface Charge Gauss Law Error      =   -5.595778e-02
 -----------------------------------------------------------
----------------------Components of G_es----------------------
  qN-ESPN =   -6287.67459727 a.u. = -3945575.36035553 kcal/mol
  qN-ESPe =    6288.32853320 a.u. = 3945985.71134539 kcal/mol
  qe-ESPN =    6287.96546872 a.u. = 3945757.88494400 kcal/mol
  qe-ESPe =   -6288.64790160 a.u. = -3946186.11804055 kcal/mol
  -------
  q-ESPN  =       0.29087145 a.u. =     182.52458847 kcal/mol
  q-ESPe  =      -0.31936840 a.u. =    -200.40669516 kcal/mol
---------------------------------------------------------------
    4   -3617.3185663655      1.25e-04  

 ----------------Surface Charge Diagnostics-----------------
 Total Electronic Charge                   =            -298
 Total Nuclear Charge                      =             298
 Theoretical Electronic Surface Charge     =    2.360444e+02
 Theoretical Nuclear Surface Charge        =   -2.360444e+02
 Theoretical Total Surface Charge          =    0.000000e+00
 Total Electronic Surface Charge           =    2.381897e+02
 Total Nuclear Surface Charge              =   -2.382464e+02
 Total Surface Charge                      =   -5.664394e-02
 Electronic Surface Charge Gauss Law Error =    2.145297e+00
 Nuclear Surface Charge Gauss Law Error    =   -2.201941e+00
 Total Surface Charge Gauss Law Error      =   -5.664394e-02
 -----------------------------------------------------------
----------------------Components of G_es----------------------
  qN-ESPN =   -6287.67459727 a.u. = -3945575.36035553 kcal/mol
  qN-ESPe =    6288.20856355 a.u. = 3945910.42924835 kcal/mol
  qe-ESPN =    6287.83533528 a.u. = 3945676.22497567 kcal/mol
  qe-ESPe =   -6288.39735808 a.u. = -3946028.89960855 kcal/mol
  -------
  q-ESPN  =       0.16073800 a.u. =     100.86462014 kcal/mol
  q-ESPe  =      -0.18879454 a.u. =    -118.47036021 kcal/mol
---------------------------------------------------------------
    5   -3617.3230904699      5.79e-05  

 ----------------Surface Charge Diagnostics-----------------
 Total Electronic Charge                   =            -298
 Total Nuclear Charge                      =             298
 Theoretical Electronic Surface Charge     =    2.360444e+02
 Theoretical Nuclear Surface Charge        =   -2.360444e+02
 Theoretical Total Surface Charge          =    0.000000e+00
 Total Electronic Surface Charge           =    2.381898e+02
 Total Nuclear Surface Charge              =   -2.382464e+02
 Total Surface Charge                      =   -5.663438e-02
 Electronic Surface Charge Gauss Law Error =    2.145306e+00
 Nuclear Surface Charge Gauss Law Error    =   -2.201941e+00
 Total Surface Charge Gauss Law Error      =   -5.663438e-02
 -----------------------------------------------------------
----------------------Components of G_es----------------------
  qN-ESPN =   -6287.67459727 a.u. = -3945575.36035553 kcal/mol
  qN-ESPe =    6288.23467405 a.u. = 3945926.81383862 kcal/mol
  qe-ESPN =    6287.86241815 a.u. = 3945693.21973168 kcal/mol
  qe-ESPe =   -6288.45069069 a.u. = -3946062.36632720 kcal/mol
  -------
  q-ESPN  =       0.18782087 a.u. =     117.85937615 kcal/mol
  q-ESPe  =      -0.21601664 a.u. =    -135.55248859 kcal/mol
---------------------------------------------------------------
    6   -3617.3242048611      2.18e-05  

 ----------------Surface Charge Diagnostics-----------------
 Total Electronic Charge                   =            -298
 Total Nuclear Charge                      =             298
 Theoretical Electronic Surface Charge     =    2.360444e+02
 Theoretical Nuclear Surface Charge        =   -2.360444e+02
 Theoretical Total Surface Charge          =    0.000000e+00
 Total Electronic Surface Charge           =    2.381898e+02
 Total Nuclear Surface Charge              =   -2.382464e+02
 Total Surface Charge                      =   -5.662621e-02
 Electronic Surface Charge Gauss Law Error =    2.145315e+00
 Nuclear Surface Charge Gauss Law Error    =   -2.201941e+00
 Total Surface Charge Gauss Law Error      =   -5.662621e-02
 -----------------------------------------------------------
----------------------Components of G_es----------------------
  qN-ESPN =   -6287.67459727 a.u. = -3945575.36035553 kcal/mol
  qN-ESPe =    6288.23496952 a.u. = 3945926.99924950 kcal/mol
  qe-ESPN =    6287.86272770 a.u. = 3945693.41398238 kcal/mol
  qe-ESPe =   -6288.45135033 a.u. = -3946062.78025213 kcal/mol
  -------
  q-ESPN  =       0.18813043 a.u. =     118.05362685 kcal/mol
  q-ESPe  =      -0.21638080 a.u. =    -135.78100263 kcal/mol
---------------------------------------------------------------
    7   -3617.3243758233      4.10e-06  

 ----------------Surface Charge Diagnostics-----------------
 Total Electronic Charge                   =            -298
 Total Nuclear Charge                      =             298
 Theoretical Electronic Surface Charge     =    2.360444e+02
 Theoretical Nuclear Surface Charge        =   -2.360444e+02
 Theoretical Total Surface Charge          =    0.000000e+00
 Total Electronic Surface Charge           =    2.381898e+02
 Total Nuclear Surface Charge              =   -2.382464e+02
 Total Surface Charge                      =   -5.663851e-02
 Electronic Surface Charge Gauss Law Error =    2.145302e+00
 Nuclear Surface Charge Gauss Law Error    =   -2.201941e+00
 Total Surface Charge Gauss Law Error      =   -5.663851e-02
 -----------------------------------------------------------
----------------------Components of G_es----------------------
  qN-ESPN =   -6287.67459727 a.u. = -3945575.36035553 kcal/mol
  qN-ESPe =    6288.23610681 a.u. = 3945927.71290879 kcal/mol
  qe-ESPN =    6287.86364839 a.u. = 3945693.99171928 kcal/mol
  qe-ESPe =   -6288.45343723 a.u. = -3946064.08980391 kcal/mol
  -------
  q-ESPN  =       0.18905111 a.u. =     118.63136375 kcal/mol
  q-ESPe  =      -0.21733042 a.u. =    -136.37689513 kcal/mol
---------------------------------------------------------------
    8   -3617.3243870227      2.40e-06  

 ----------------Surface Charge Diagnostics-----------------
 Total Electronic Charge                   =            -298
 Total Nuclear Charge                      =             298
 Theoretical Electronic Surface Charge     =    2.360444e+02
 Theoretical Nuclear Surface Charge        =   -2.360444e+02
 Theoretical Total Surface Charge          =    0.000000e+00
 Total Electronic Surface Charge           =    2.381897e+02
 Total Nuclear Surface Charge              =   -2.382464e+02
 Total Surface Charge                      =   -5.664618e-02
 Electronic Surface Charge Gauss Law Error =    2.145295e+00
 Nuclear Surface Charge Gauss Law Error    =   -2.201941e+00
 Total Surface Charge Gauss Law Error      =   -5.664618e-02
 -----------------------------------------------------------
----------------------Components of G_es----------------------
  qN-ESPN =   -6287.67459727 a.u. = -3945575.36035553 kcal/mol
  qN-ESPe =    6288.23550526 a.u. = 3945927.33542654 kcal/mol
  qe-ESPN =    6287.86294866 a.u. = 3945693.55263126 kcal/mol
  qe-ESPe =   -6288.45213864 a.u. = -3946063.27492929 kcal/mol
  -------
  q-ESPN  =       0.18835138 a.u. =     118.19227573 kcal/mol
  q-ESPe  =      -0.21663339 a.u. =    -135.93950275 kcal/mol
---------------------------------------------------------------
    9   -3617.3243909350      8.22e-07  

 ----------------Surface Charge Diagnostics-----------------
 Total Electronic Charge                   =            -298
 Total Nuclear Charge                      =             298
 Theoretical Electronic Surface Charge     =    2.360444e+02
 Theoretical Nuclear Surface Charge        =   -2.360444e+02
 Theoretical Total Surface Charge          =    0.000000e+00
 Total Electronic Surface Charge           =    2.381897e+02
 Total Nuclear Surface Charge              =   -2.382464e+02
 Total Surface Charge                      =   -5.664576e-02
 Electronic Surface Charge Gauss Law Error =    2.145295e+00
 Nuclear Surface Charge Gauss Law Error    =   -2.201941e+00
 Total Surface Charge Gauss Law Error      =   -5.664576e-02
 -----------------------------------------------------------
----------------------Components of G_es----------------------
  qN-ESPN =   -6287.67459727 a.u. = -3945575.36035553 kcal/mol
  qN-ESPe =    6288.23545963 a.u. = 3945927.30679545 kcal/mol
  qe-ESPN =    6287.86290483 a.u. = 3945693.52513013 kcal/mol
  qe-ESPe =   -6288.45205171 a.u. = -3946063.22038038 kcal/mol
  -------
  q-ESPN  =       0.18830756 a.u. =     118.16477460 kcal/mol
  q-ESPe  =      -0.21659209 a.u. =    -135.91358492 kcal/mol
---------------------------------------------------------------
   10   -3617.3243914296      3.55e-07  

 ----------------Surface Charge Diagnostics-----------------
 Total Electronic Charge                   =            -298
 Total Nuclear Charge                      =             298
 Theoretical Electronic Surface Charge     =    2.360444e+02
 Theoretical Nuclear Surface Charge        =   -2.360444e+02
 Theoretical Total Surface Charge          =    0.000000e+00
 Total Electronic Surface Charge           =    2.381897e+02
 Total Nuclear Surface Charge              =   -2.382464e+02
 Total Surface Charge                      =   -5.664545e-02
 Electronic Surface Charge Gauss Law Error =    2.145295e+00
 Nuclear Surface Charge Gauss Law Error    =   -2.201941e+00
 Total Surface Charge Gauss Law Error      =   -5.664545e-02
 -----------------------------------------------------------
----------------------Components of G_es----------------------
  qN-ESPN =   -6287.67459727 a.u. = -3945575.36035553 kcal/mol
  qN-ESPe =    6288.23554633 a.u. = 3945927.36120144 kcal/mol
  qe-ESPN =    6287.86299502 a.u. = 3945693.58172434 kcal/mol
  qe-ESPe =   -6288.45222885 a.u. = -3946063.33153440 kcal/mol
  -------
  q-ESPN  =       0.18839774 a.u. =     118.22136881 kcal/mol
  q-ESPe  =      -0.21668252 a.u. =    -135.97033296 kcal/mol
---------------------------------------------------------------
   11   -3617.3243915016      1.28e-07  

 ----------------Surface Charge Diagnostics-----------------
 Total Electronic Charge                   =            -298
 Total Nuclear Charge                      =             298
 Theoretical Electronic Surface Charge     =    2.360444e+02
 Theoretical Nuclear Surface Charge        =   -2.360444e+02
 Theoretical Total Surface Charge          =    0.000000e+00
 Total Electronic Surface Charge           =    2.381897e+02
 Total Nuclear Surface Charge              =   -2.382464e+02
 Total Surface Charge                      =   -5.664572e-02
 Electronic Surface Charge Gauss Law Error =    2.145295e+00
 Nuclear Surface Charge Gauss Law Error    =   -2.201941e+00
 Total Surface Charge Gauss Law Error      =   -5.664572e-02
 -----------------------------------------------------------
----------------------Components of G_es----------------------
  qN-ESPN =   -6287.67459727 a.u. = -3945575.36035553 kcal/mol
  qN-ESPe =    6288.23549789 a.u. = 3945927.33080142 kcal/mol
  qe-ESPN =    6287.86294220 a.u. = 3945693.54858228 kcal/mol
  qe-ESPe =   -6288.45212726 a.u. = -3946063.26778672 kcal/mol
  -------
  q-ESPN  =       0.18834493 a.u. =     118.18822676 kcal/mol
  q-ESPe  =      -0.21662938 a.u. =    -135.93698530 kcal/mol
---------------------------------------------------------------
   12   -3617.3243915155      5.28e-08  

 ----------------Surface Charge Diagnostics-----------------
 Total Electronic Charge                   =            -298
 Total Nuclear Charge                      =             298
 Theoretical Electronic Surface Charge     =    2.360444e+02
 Theoretical Nuclear Surface Charge        =   -2.360444e+02
 Theoretical Total Surface Charge          =    0.000000e+00
 Total Electronic Surface Charge           =    2.381897e+02
 Total Nuclear Surface Charge              =   -2.382464e+02
 Total Surface Charge                      =   -5.664564e-02
 Electronic Surface Charge Gauss Law Error =    2.145295e+00
 Nuclear Surface Charge Gauss Law Error    =   -2.201941e+00
 Total Surface Charge Gauss Law Error      =   -5.664564e-02
 -----------------------------------------------------------
----------------------Components of G_es----------------------
  qN-ESPN =   -6287.67459727 a.u. = -3945575.36035553 kcal/mol
  qN-ESPe =    6288.23549798 a.u. = 3945927.33086252 kcal/mol
  qe-ESPN =    6287.86294418 a.u. = 3945693.54982227 kcal/mol
  qe-ESPe =   -6288.45212933 a.u. = -3946063.26908385 kcal/mol
  -------
  q-ESPN  =       0.18834691 a.u. =     118.18946674 kcal/mol
  q-ESPe  =      -0.21663135 a.u. =    -135.93822133 kcal/mol
---------------------------------------------------------------
   13   -3617.3243915144      1.74e-08  
   14   -3617.3243915150      8.00e-09  Convergence criterion met

 ----------------Surface Charge Diagnostics-----------------
 Total Electronic Charge                   =            -298
 Total Nuclear Charge                      =             298
 Theoretical Electronic Surface Charge     =    2.360444e+02
 Theoretical Nuclear Surface Charge        =   -2.360444e+02
 Theoretical Total Surface Charge          =    0.000000e+00
 Total Electronic Surface Charge           =    2.381897e+02
 Total Nuclear Surface Charge              =   -2.382464e+02
 Total Surface Charge                      =   -5.664567e-02
 Electronic Surface Charge Gauss Law Error =    2.145295e+00
 Nuclear Surface Charge Gauss Law Error    =   -2.201941e+00
 Total Surface Charge Gauss Law Error      =   -5.664567e-02
 -----------------------------------------------------------
----------------------Components of G_es----------------------
  qN-ESPN =   -6287.67459727 a.u. = -3945575.36035553 kcal/mol
  qN-ESPe =    6288.23549291 a.u. = 3945927.32768170 kcal/mol
  qe-ESPN =    6287.86293849 a.u. = 3945693.54625158 kcal/mol
  qe-ESPe =   -6288.45211847 a.u. = -3946063.26227238 kcal/mol
  -------
  q-ESPN  =       0.18834121 a.u. =     118.18589606 kcal/mol
  q-ESPe  =      -0.21662556 a.u. =    -135.93459067 kcal/mol
---------------------------------------------------------------
 ---------------------------------------
 SCF time:   CPU 94544.54s  wall 3906.00s 

************** Final PCM Free Energy Summary **************
 G_electrostatic  =      -0.01414217 hartree =      -8.87434731 kcal/mol
 G_cavitation     =       0.00000000 hartree =       0.00000000 kcal/mol
 G_dispersion     =       0.00000000 hartree =       0.00000000 kcal/mol
 G_repulsion      =       0.00000000 hartree =       0.00000000 kcal/mol
 --------------------------------------------------
 Non-electrostatic Free Energy =       0.00000000 hartree =       0.00000000 kcal/mol
 Total                         =      -0.01414217 hartree =      -8.87434731 kcal/mol
 --------------------------------------------------
 SCF Energy (H0 + V/2)                       =   -3617.32439151 
 Solute Internal Energy (H0)                 =   -3617.31024934 
 Total Free Energy (H0 + V/2 + non-elec)     =   -3617.32439151 hartree
                                             = -2269905.31535496 kcal/mol
***********************************************************

 SCF   energy in the final basis set =    -3617.3243915150
 Total energy in the final basis set =    -3617.3243915150
 
 Direct TDDFT/TDA calculation will be performed
 Exchange:     0.1900 Hartree-Fock + 0.3500 B88 + 0.4600 muB88 + LR-HF
 Correlation:  0.1900 VWN5 + 0.8100 LYP
 Using SG-1 standard quadrature grid
 Triplet excitation energies requested
 Singlet excitation energies requested
 Adding PCM contribution to the XC response
 CIS energy converged when residual is below 10e- 6
 ---------------------------------------------------
 Iter    Rts Conv    Rts Left    Ttl Dev     Max Dev
 ---------------------------------------------------
   1         0          10      0.000609    0.000083
   2         0          10      0.000325    0.000053
   3         0          10      0.000240    0.000061
   4         0          10      0.000179    0.000049
   5         3           7      0.000144    0.000048
   6         3           7      0.000061    0.000024
   7         5           5      0.000025    0.000009
   8         5           5      0.000013    0.000004
   9         7           3      0.000008    0.000002
  10         9           1      0.000007    0.000002
  11         9           1      0.000006    0.000002
  12         9           1      0.000005    0.000001
  13        10           0      0.000004    0.000001    Roots Converged
 ---------------------------------------------------
 Triplets done: starting singlet calculation
 ---------------------------------------------------
 Iter    Rts Conv    Rts Left    Ttl Dev     Max Dev
 ---------------------------------------------------
 Using non-symmetric K matrix
 Warning: not using a symmetric Q
  14         0          10      0.001171    0.000171
  15         0          10      0.000517    0.000085
  16         0          10      0.000245    0.000040
  17         0          10      0.000193    0.000055
  18         0          10      0.000149    0.000054
  19         1           9      0.000092    0.000038
  20         3           7      0.000059    0.000020
  21         4           6      0.000043    0.000017
  22         4           6      0.000030    0.000011
  23         6           4      0.000021    0.000008
  24         7           3      0.000016    0.000006
  25         7           3      0.000013    0.000005
  26         8           2      0.000011    0.000004
  27         8           2      0.000008    0.000003
  28         9           1      0.000006    0.000002
  29         9           1      0.000006    0.000001
  30        10           0      0.000005    0.000001    Roots Converged
 ---------------------------------------------------
 
 ---------------------------------------------------
         TDDFT/TDA Excitation Energies              
 ---------------------------------------------------

 Excited state   1: excitation energy (eV) =    2.3351
 Total energy for state  1:                 -3617.23857697 au
    Multiplicity: Triplet
    Trans. Mom.:  0.0000 X   0.0000 Y   0.0000 Z
    Strength   :     0.0000000000
    D(  147) --> V(    2) amplitude = -0.3597
    D(  149) --> V(    1) amplitude =  0.8472

 Excited state   2: excitation energy (eV) =    2.6281
 Total energy for state  2:                 -3617.22780964 au
    Multiplicity: Triplet
    Trans. Mom.:  0.0000 X   0.0000 Y   0.0000 Z
    Strength   :     0.0000000000
    D(  147) --> V(    1) amplitude =  0.6050
    D(  148) --> V(    2) amplitude = -0.2415
    D(  149) --> V(    2) amplitude = -0.6025

 Excited state   3: excitation energy (eV) =    2.9697
 Total energy for state  3:                 -3617.21525523 au
    Multiplicity: Triplet
    Trans. Mom.:  0.0000 X   0.0000 Y   0.0000 Z
    Strength   :     0.0000000000
    D(  147) --> V(    2) amplitude = -0.4578
    D(  148) --> V(    1) amplitude =  0.5973
    D(  149) --> V(    3) amplitude =  0.4175

 Excited state   4: excitation energy (eV) =    3.3319
 Total energy for state  4:                 -3617.20194657 au
    Multiplicity: Singlet
    Trans. Mom.:  5.3584 X  -0.5909 Y  -0.0605 Z
    Strength   :     2.3725585257
    D(  147) --> V(    2) amplitude = -0.3109
    D(  149) --> V(    1) amplitude =  0.9209

 Excited state   5: excitation energy (eV) =    3.4268
 Total energy for state  5:                 -3617.19845784 au
    Multiplicity: Triplet
    Trans. Mom.:  0.0000 X   0.0000 Y   0.0000 Z
    Strength   :     0.0000000000
    D(  145) --> V(    1) amplitude =  0.3259
    D(  146) --> V(    2) amplitude = -0.3355
    D(  147) --> V(    3) amplitude =  0.4405
    D(  148) --> V(    2) amplitude = -0.2728
    D(  149) --> V(    5) amplitude = -0.4235

 Excited state   6: excitation energy (eV) =    3.4839
 Total energy for state  6:                 -3617.19636165 au
    Multiplicity: Triplet
    Trans. Mom.:  0.0000 X   0.0000 Y   0.0000 Z
    Strength   :     0.0000000000
    D(  146) --> V(    1) amplitude = -0.4214
    D(  147) --> V(    5) amplitude =  0.2773
    D(  148) --> V(    1) amplitude =  0.5616
    D(  148) --> V(    3) amplitude = -0.3876
    D(  149) --> V(    3) amplitude = -0.2244

 Excited state   7: excitation energy (eV) =    3.8296
 Total energy for state  7:                 -3617.18365534 au
    Multiplicity: Triplet
    Trans. Mom.:  0.0000 X   0.0000 Y   0.0000 Z
    Strength   :     0.0000000000
    D(  139) --> V(    1) amplitude = -0.2273
    D(  148) --> V(    4) amplitude = -0.3318
    D(  148) --> V(    6) amplitude =  0.3733
    D(  149) --> V(    4) amplitude =  0.2822
    D(  149) --> V(    6) amplitude = -0.3337

 Excited state   8: excitation energy (eV) =    3.9029
 Total energy for state  8:                 -3617.18096155 au
    Multiplicity: Singlet
    Trans. Mom.: -0.5246 X  -0.2719 Y  -0.3769 Z
    Strength   :     0.0469644401
    D(  147) --> V(    1) amplitude = -0.5924
    D(  148) --> V(    1) amplitude = -0.2679
    D(  149) --> V(    2) amplitude =  0.6456

 Excited state   9: excitation energy (eV) =    3.9070
 Total energy for state  9:                 -3617.18081066 au
    Multiplicity: Singlet
    Trans. Mom.:  1.3527 X   1.0362 Y  -0.0999 Z
    Strength   :     0.2788634919
    D(  148) --> V(    1) amplitude =  0.8196
    D(  149) --> V(    2) amplitude =  0.2197

 Excited state  10: excitation energy (eV) =    3.9648
 Total energy for state 10:                 -3617.17868730 au
    Multiplicity: Triplet
    Trans. Mom.:  0.0000 X   0.0000 Y   0.0000 Z
    Strength   :     0.0000000000
    D(  146) --> V(    3) amplitude = -0.2632
    D(  147) --> V(    5) amplitude =  0.2340
    D(  149) --> V(   12) amplitude = -0.2296

 Excited state  11: excitation energy (eV) =    3.9680
 Total energy for state 11:                 -3617.17856961 au
    Multiplicity: Triplet
    Trans. Mom.:  0.0000 X   0.0000 Y   0.0000 Z
    Strength   :     0.0000000000
    D(  140) --> V(    1) amplitude = -0.2915
    D(  145) --> V(    1) amplitude =  0.2355
    D(  148) --> V(    2) amplitude = -0.3283
    D(  148) --> V(    5) amplitude =  0.2562

 Excited state  12: excitation energy (eV) =    4.1493
 Total energy for state 12:                 -3617.17190681 au
    Multiplicity: Triplet
    Trans. Mom.:  0.0000 X   0.0000 Y   0.0000 Z
    Strength   :     0.0000000000
    D(  141) --> V(    1) amplitude =  0.5112
    D(  142) --> V(    2) amplitude =  0.5289
    D(  145) --> V(    1) amplitude =  0.3183

 Excited state  13: excitation energy (eV) =    4.1534
 Total energy for state 13:                 -3617.17175588 au
    Multiplicity: Triplet
    Trans. Mom.:  0.0000 X   0.0000 Y   0.0000 Z
    Strength   :     0.0000000000
    D(  141) --> V(    2) amplitude =  0.4606
    D(  142) --> V(    1) amplitude =  0.6043
    D(  144) --> V(    1) amplitude = -0.2397
    D(  145) --> V(    2) amplitude =  0.3522

 Excited state  14: excitation energy (eV) =    4.5281
 Total energy for state 14:                 -3617.15798685 au
    Multiplicity: Singlet
    Trans. Mom.:  0.1560 X   0.1042 Y   0.0534 Z
    Strength   :     0.0042213359
    D(  147) --> V(    1) amplitude =  0.5276
    D(  148) --> V(    2) amplitude = -0.4473
    D(  149) --> V(    2) amplitude =  0.6123

 Excited state  15: excitation energy (eV) =    4.5803
 Total energy for state 15:                 -3617.15606877 au
    Multiplicity: Singlet
    Trans. Mom.: -1.2096 X  -0.8252 Y   0.0408 Z
    Strength   :     0.2407950231
    D(  146) --> V(    1) amplitude = -0.4140
    D(  147) --> V(    2) amplitude =  0.4950
    D(  148) --> V(    3) amplitude = -0.2843
    D(  149) --> V(    3) amplitude = -0.4016
    D(  149) --> V(    4) amplitude = -0.2261
    D(  149) --> V(    6) amplitude =  0.2217

 Excited state  16: excitation energy (eV) =    4.8237
 Total energy for state 16:                 -3617.14712358 au
    Multiplicity: Singlet
    Trans. Mom.: -0.2513 X  -0.0340 Y  -0.0163 Z
    Strength   :     0.0076296310
    D(  145) --> V(    1) amplitude = -0.3431
    D(  147) --> V(    1) amplitude =  0.3258
    D(  147) --> V(    3) amplitude = -0.4082
    D(  148) --> V(    2) amplitude =  0.4641
    D(  149) --> V(    5) amplitude =  0.3773

 Excited state  17: excitation energy (eV) =    4.8581
 Total energy for state 17:                 -3617.14586101 au
    Multiplicity: Singlet
    Trans. Mom.: -0.8212 X  -0.1532 Y   0.0386 Z
    Strength   :     0.0832330674
    D(  147) --> V(    5) amplitude = -0.2494
    D(  148) --> V(    1) amplitude = -0.2899
    D(  149) --> V(    3) amplitude =  0.5306
    D(  149) --> V(    4) amplitude = -0.3666
    D(  149) --> V(    6) amplitude =  0.3413

 Excited state  18: excitation energy (eV) =    5.0454
 Total energy for state 18:                 -3617.13897723 au
    Multiplicity: Singlet
    Trans. Mom.: -0.1288 X  -0.0384 Y   0.0191 Z
    Strength   :     0.0022767465
    D(  140) --> V(    1) amplitude =  0.2739
    D(  141) --> V(    1) amplitude =  0.2630
    D(  146) --> V(    2) amplitude = -0.3509
    D(  147) --> V(    1) amplitude =  0.2246
    D(  147) --> V(    3) amplitude =  0.2330
    D(  148) --> V(    2) amplitude =  0.4379
    D(  148) --> V(    5) amplitude = -0.3057
    D(  149) --> V(    5) amplitude = -0.3550

 Excited state  19: excitation energy (eV) =    5.1210
 Total energy for state 19:                 -3617.13619640 au
    Multiplicity: Singlet
    Trans. Mom.:  0.2125 X   0.2974 Y  -0.0029 Z
    Strength   :     0.0167604844
    D(  146) --> V(    1) amplitude = -0.4590
    D(  149) --> V(    3) amplitude =  0.3084
    D(  149) --> V(    4) amplitude =  0.5091
    D(  149) --> V(    5) amplitude = -0.2501

 Excited state  20: excitation energy (eV) =    5.1340
 Total energy for state 20:                 -3617.13572032 au
    Multiplicity: Singlet
    Trans. Mom.: -0.3030 X  -0.4103 Y   0.0617 Z
    Strength   :     0.0332018236
    D(  146) --> V(    1) amplitude =  0.2381
    D(  148) --> V(    6) amplitude = -0.2218
    D(  149) --> V(    4) amplitude =  0.2869
    D(  149) --> V(    6) amplitude =  0.5983
    D(  149) --> V(    8) amplitude =  0.2551
 
 ---------------------------------------------------
  SETman timing summary (seconds)
  CPU time            944510.03s
  System time              0.10s
  Wall time            40922.15s
 
 --------------------------------------------------------------
 
                    Orbital Energies (a.u.)
 --------------------------------------------------------------
 
 Alpha MOs
 -- Occupied --
-88.9630 -88.9629 -88.9605 -88.9604 -88.9583 -88.9581 -19.2263 -19.2262
-10.3143 -10.3142 -10.2990 -10.2989 -10.2943 -10.2940 -10.2930 -10.2929
-10.2914 -10.2914 -10.2908 -10.2904 -10.2862 -10.2861 -10.2749 -10.2747
-10.2684 -10.2684 -10.2588 -10.2587 -10.2585 -10.2581 -10.2565 -10.2562
-10.2544 -10.2541 -10.2535 -10.2533  -8.0405  -8.0404  -8.0379  -8.0377
 -8.0356  -8.0354  -6.0039  -6.0037  -6.0011  -6.0010  -6.0004  -6.0002
 -5.9994  -5.9992  -5.9976  -5.9976  -5.9975  -5.9974  -5.9957  -5.9955
 -5.9952  -5.9950  -5.9920  -5.9918  -1.1501  -1.1488  -0.9981  -0.9928
 -0.9859  -0.9754  -0.9661  -0.9594  -0.9071  -0.8682  -0.8646  -0.8520
 -0.8372  -0.8333  -0.8251  -0.8210  -0.8152  -0.8122  -0.7959  -0.7950
 -0.7826  -0.7705  -0.7429  -0.7154  -0.6836  -0.6797  -0.6601  -0.6592
 -0.6516  -0.6339  -0.6310  -0.6271  -0.6089  -0.6072  -0.6034  -0.6007
 -0.5892  -0.5863  -0.5789  -0.5698  -0.5489  -0.5405  -0.5386  -0.5365
 -0.5293  -0.5238  -0.5075  -0.4929  -0.4898  -0.4886  -0.4871  -0.4841
 -0.4813  -0.4806  -0.4770  -0.4717  -0.4697  -0.4667  -0.4635  -0.4572
 -0.4562  -0.4555  -0.4482  -0.4420  -0.4388  -0.4360  -0.4278  -0.4259
 -0.4225  -0.4154  -0.4094  -0.4073  -0.4036  -0.4029  -0.3824  -0.3584
 -0.3557  -0.3533  -0.3432  -0.3332  -0.3214  -0.3200  -0.3159  -0.3158
 -0.3147  -0.2980  -0.2651  -0.2644  -0.2395
 -- Virtual --
 -0.0421  -0.0204   0.0059   0.0228   0.0232   0.0241   0.0269   0.0290
  0.0336   0.0343   0.0377   0.0401   0.0416   0.0451   0.0475   0.0486
  0.0500   0.0510   0.0535   0.0545   0.0569   0.0575   0.0589   0.0600
  0.0607   0.0616   0.0678   0.0689   0.0720   0.0741   0.0757   0.0776
  0.0785   0.0822   0.0830   0.0851   0.0888   0.0904   0.0938   0.0957
  0.0970   0.0982   0.0991   0.1028   0.1053   0.1107   0.1119   0.1141
  0.1158   0.1186   0.1221   0.1224   0.1262   0.1283   0.1298   0.1321
  0.1362   0.1381   0.1405   0.1416   0.1428   0.1456   0.1488   0.1490
  0.1520   0.1546   0.1553   0.1597   0.1618   0.1641   0.1656   0.1665
  0.1694   0.1721   0.1739   0.1750   0.1777   0.1794   0.1825   0.1848
  0.1858   0.1882   0.1895   0.1919   0.1945   0.1976   0.1985   0.2004
  0.2011   0.2041   0.2059   0.2086   0.2092   0.2103   0.2120   0.2142
  0.2164   0.2189   0.2192   0.2213   0.2221   0.2246   0.2264   0.2279
  0.2296   0.2316   0.2327   0.2347   0.2354   0.2383   0.2394   0.2411
  0.2436   0.2458   0.2463   0.2480   0.2504   0.2523   0.2532   0.2550
  0.2556   0.2576   0.2585   0.2598   0.2626   0.2653   0.2668   0.2683
  0.2695   0.2726   0.2738   0.2745   0.2760   0.2788   0.2813   0.2831
  0.2839   0.2865   0.2887   0.2916   0.2925   0.2928   0.2947   0.2958
  0.2970   0.3010   0.3024   0.3036   0.3039   0.3054   0.3073   0.3083
  0.3099   0.3112   0.3128   0.3140   0.3167   0.3181   0.3192   0.3202
  0.3211   0.3235   0.3242   0.3259   0.3268   0.3298   0.3304   0.3312
  0.3323   0.3344   0.3350   0.3357   0.3375   0.3385   0.3396   0.3409
  0.3422   0.3460   0.3467   0.3475   0.3501   0.3513   0.3526   0.3537
  0.3551   0.3579   0.3594   0.3613   0.3628   0.3630   0.3642   0.3676
  0.3697   0.3702   0.3720   0.3732   0.3748   0.3756   0.3783   0.3810
  0.3822   0.3834   0.3861   0.3886   0.3890   0.3918   0.3925   0.3926
  0.3960   0.3980   0.3986   0.4009   0.4024   0.4036   0.4050   0.4058
  0.4086   0.4095   0.4097   0.4108   0.4145   0.4163   0.4170   0.4191
  0.4213   0.4240   0.4249   0.4267   0.4277   0.4299   0.4312   0.4333
  0.4358   0.4376   0.4382   0.4391   0.4414   0.4418   0.4440   0.4448
  0.4470   0.4491   0.4498   0.4519   0.4547   0.4550   0.4571   0.4589
  0.4611   0.4613   0.4635   0.4648   0.4668   0.4704   0.4723   0.4728
  0.4748   0.4753   0.4779   0.4786   0.4796   0.4819   0.4839   0.4858
  0.4872   0.4904   0.4928   0.4946   0.4966   0.4973   0.4991   0.4999
  0.5005   0.5042   0.5047   0.5079   0.5089   0.5120   0.5131   0.5145
  0.5161   0.5198   0.5218   0.5235   0.5255   0.5260   0.5283   0.5309
  0.5328   0.5334   0.5354   0.5374   0.5398   0.5416   0.5446   0.5495
  0.5523   0.5537   0.5563   0.5575   0.5579   0.5624   0.5636   0.5655
  0.5664   0.5702   0.5721   0.5771   0.5784   0.5792   0.5826   0.5851
  0.5858   0.5871   0.5907   0.5938   0.5966   0.5972   0.5976   0.5999
  0.6020   0.6054   0.6098   0.6104   0.6123   0.6143   0.6151   0.6195
  0.6220   0.6226   0.6249   0.6276   0.6301   0.6320   0.6331   0.6357
  0.6378   0.6392   0.6403   0.6421   0.6434   0.6512   0.6522   0.6526
  0.6546   0.6557   0.6590   0.6629   0.6636   0.6654   0.6694   0.6699
  0.6714   0.6726   0.6753   0.6777   0.6807   0.6827   0.6843   0.6858
  0.6867   0.6878   0.6891   0.6903   0.6933   0.6943   0.6951   0.6961
  0.6985   0.7019   0.7041   0.7058   0.7070   0.7085   0.7109   0.7140
  0.7150   0.7168   0.7190   0.7219   0.7250   0.7262   0.7267   0.7293
  0.7296   0.7315   0.7335   0.7342   0.7369   0.7375   0.7405   0.7422
  0.7438   0.7445   0.7475   0.7491   0.7513   0.7519   0.7533   0.7535
  0.7564   0.7588   0.7598   0.7625   0.7642   0.7654   0.7665   0.7683
  0.7710   0.7725   0.7744   0.7756   0.7772   0.7792   0.7808   0.7829
  0.7841   0.7845   0.7873   0.7900   0.7906   0.7939   0.7962   0.7973
  0.7981   0.7996   0.8026   0.8030   0.8054   0.8071   0.8086   0.8109
  0.8128   0.8140   0.8145   0.8187   0.8195   0.8211   0.8234   0.8238
  0.8256   0.8294   0.8313   0.8326   0.8336   0.8377   0.8392   0.8413
  0.8442   0.8455   0.8472   0.8483   0.8497   0.8514   0.8531   0.8558
  0.8582   0.8594   0.8620   0.8631   0.8656   0.8678   0.8710   0.8720
  0.8734   0.8772   0.8783   0.8816   0.8833   0.8851   0.8886   0.8925
  0.8931   0.8941   0.8969   0.8995   0.9037   0.9048   0.9079   0.9113
  0.9131   0.9139   0.9161   0.9181   0.9224   0.9254   0.9269   0.9293
  0.9316   0.9345   0.9377   0.9384   0.9434   0.9455   0.9512   0.9540
  0.9555   0.9590   0.9609   0.9627   0.9683   0.9689   0.9726   0.9747
  0.9767   0.9777   0.9825   0.9842   0.9878   0.9885   0.9916   0.9965
  0.9988   1.0002   1.0036   1.0063   1.0074   1.0105   1.0126   1.0147
  1.0189   1.0214   1.0244   1.0304   1.0326   1.0341   1.0378   1.0396
  1.0408   1.0436   1.0467   1.0497   1.0535   1.0553   1.0589   1.0629
  1.0646   1.0660   1.0694   1.0712   1.0754   1.0806   1.0835   1.0879
  1.0943   1.0948   1.0984   1.1021   1.1041   1.1069   1.1100   1.1122
  1.1177   1.1216   1.1253   1.1288   1.1314   1.1319   1.1372   1.1402
  1.1421   1.1437   1.1490   1.1501   1.1537   1.1572   1.1610   1.1639
  1.1683   1.1721   1.1759   1.1784   1.1820   1.1855   1.1876   1.1914
  1.1952   1.2000   1.2021   1.2042   1.2080   1.2105   1.2157   1.2223
  1.2267   1.2297   1.2335   1.2357   1.2426   1.2471   1.2521   1.2543
  1.2566   1.2590   1.2659   1.2749   1.2764   1.2815   1.2841   1.2906
  1.2910   1.2967   1.2980   1.3002   1.3082   1.3145   1.3174   1.3220
  1.3261   1.3290   1.3351   1.3385   1.3430   1.3494   1.3508   1.3533
  1.3616   1.3642   1.3698   1.3739   1.3833   1.3888   1.3962   1.4005
  1.4040   1.4065   1.4101   1.4149   1.4196   1.4214   1.4241   1.4302
  1.4313   1.4340   1.4376   1.4452   1.4466   1.4511   1.4552   1.4621
  1.4638   1.4649   1.4678   1.4716   1.4733   1.4749   1.4784   1.4833
  1.4862   1.4874   1.4884   1.4938   1.4982   1.5029   1.5048   1.5103
  1.5140   1.5164   1.5178   1.5194   1.5258   1.5349   1.5386   1.5410
  1.5443   1.5504   1.5520   1.5602   1.5628   1.5633   1.5681   1.5767
  1.5782   1.5802   1.5832   1.5882   1.5973   1.5994   1.6126   1.6153
  1.6194   1.6219   1.6260   1.6337   1.6372   1.6380   1.6415   1.6448
  1.6493   1.6541   1.6597   1.6621   1.6647   1.6670   1.6693   1.6731
  1.6799   1.6841   1.6878   1.6924   1.6944   1.6967   1.6997   1.7043
  1.7057   1.7071   1.7084   1.7124   1.7180   1.7203   1.7264   1.7287
  1.7331   1.7379   1.7399   1.7412   1.7420   1.7453   1.7499   1.7553
  1.7581   1.7596   1.7658   1.7674   1.7684   1.7716   1.7765   1.7776
  1.7815   1.7852   1.7861   1.7898   1.7932   1.7938   1.7986   1.8056
  1.8069   1.8130   1.8148   1.8196   1.8211   1.8241   1.8262   1.8275
  1.8291   1.8338   1.8392   1.8411   1.8473   1.8506   1.8584   1.8625
  1.8649   1.8721   1.8746   1.8770   1.8812   1.8835   1.8885   1.8947
  1.8994   1.9072   1.9106   1.9153   1.9196   1.9247   1.9272   1.9349
  1.9381   1.9411   1.9423   1.9437   1.9500   1.9511   1.9558   1.9614
  1.9643   1.9671   1.9707   1.9736   1.9790   1.9804   1.9851   1.9862
  1.9916   2.0008   2.0053   2.0079   2.0091   2.0124   2.0151   2.0185
  2.0255   2.0323   2.0365   2.0452   2.0478   2.0530   2.0575   2.0624
  2.0653   2.0663   2.0739   2.0777   2.0803   2.0842   2.0901   2.0905
  2.0967   2.1017   2.1068   2.1095   2.1163   2.1193   2.1224   2.1255
  2.1298   2.1317   2.1411   2.1442   2.1495   2.1508   2.1529   2.1614
  2.1618   2.1662   2.1730   2.1760   2.1826   2.1851   2.1916   2.1920
  2.1959   2.1978   2.2065   2.2099   2.2123   2.2192   2.2212   2.2234
  2.2278   2.2283   2.2325   2.2357   2.2399   2.2487   2.2509   2.2595
  2.2627   2.2682   2.2701   2.2772   2.2777   2.2789   2.2817   2.2855
  2.2897   2.2968   2.2972   2.2986   2.3017   2.3061   2.3093   2.3121
  2.3156   2.3171   2.3199   2.3255   2.3297   2.3364   2.3520   2.3566
  2.3643   2.3743   2.3774   2.3895   2.3919   2.3962   2.4004   2.4070
  2.4078   2.4129   2.4149   2.4176   2.4221   2.4267   2.4334   2.4341
  2.4445   2.4531   2.4608   2.4623   2.4675   2.4712   2.4757   2.4793
  2.4957   2.4966   2.5121   2.5128   2.5170   2.5218   2.5326   2.5464
  2.5475   2.5625   2.5732   2.5829   2.5853   2.5936   2.6035   2.6054
  2.6167   2.6321   2.6363   2.6430   2.6471   2.6701   2.6734   2.6808
  2.6886   2.6891   2.6907   2.6983   2.7023   2.7185   2.7263   2.7309
  2.7359   2.7446   2.7460   2.7488   2.7503   2.7583   2.7703   2.7714
  2.7767   2.7861   2.7899   2.7930   2.7982   2.8066   2.8137   2.8168
  2.8258   2.8356   2.8390   2.8427   2.8451   2.8524   2.8533   2.8569
  2.8609   2.8711   2.8764   2.8844   2.8858   2.8927   2.8955   2.9080
  2.9137   2.9233   2.9273   2.9352   2.9405   2.9440   2.9506   2.9543
  2.9646   2.9698   2.9777   2.9795   2.9832   2.9865   2.9936   3.0004
  3.0026   3.0131   3.0176   3.0242   3.0293   3.0308   3.0395   3.0463
  3.0533   3.0569   3.0595   3.0662   3.0688   3.0709   3.0760   3.0786
  3.0839   3.0903   3.0913   3.0966   3.0985   3.1009   3.1050   3.1074
  3.1088   3.1105   3.1160   3.1211   3.1233   3.1256   3.1319   3.1343
  3.1359   3.1391   3.1445   3.1461   3.1536   3.1568   3.1600   3.1636
  3.1654   3.1686   3.1720   3.1752   3.1780   3.1809   3.1889   3.1926
  3.2033   3.2101   3.2146   3.2197   3.2226   3.2238   3.2315   3.2349
  3.2377   3.2396   3.2453   3.2476   3.2514   3.2529   3.2586   3.2628
  3.2641   3.2678   3.2725   3.2775   3.2781   3.2822   3.2836   3.2876
  3.2892   3.2956   3.2966   3.2983   3.3037   3.3077   3.3110   3.3143
  3.3162   3.3213   3.3247   3.3293   3.3302   3.3335   3.3389   3.3413
  3.3472   3.3519   3.3549   3.3602   3.3651   3.3676   3.3703   3.3728
  3.3744   3.3821   3.3856   3.3863   3.3886   3.3912   3.3937   3.3976
  3.3998   3.4054   3.4074   3.4146   3.4177   3.4210   3.4247   3.4283
  3.4341   3.4360   3.4415   3.4502   3.4522   3.4590   3.4614   3.4648
  3.4670   3.4711   3.4727   3.4814   3.4836   3.4876   3.4902   3.4934
  3.5003   3.5006   3.5064   3.5103   3.5183   3.5197   3.5211   3.5271
  3.5292   3.5367   3.5389   3.5491   3.5526   3.5573   3.5580   3.5604
  3.5686   3.5728   3.5745   3.5781   3.5826   3.5872   3.5915   3.5952
  3.5970   3.5996   3.6070   3.6101   3.6113   3.6149   3.6178   3.6215
  3.6246   3.6294   3.6311   3.6344   3.6362   3.6388   3.6398   3.6461
  3.6540   3.6599   3.6659   3.6665   3.6688   3.6712   3.6788   3.6826
  3.6865   3.6907   3.6930   3.6961   3.7028   3.7043   3.7098   3.7158
  3.7191   3.7253   3.7345   3.7414   3.7455   3.7490   3.7534   3.7618
  3.7648   3.7699   3.7728   3.7753   3.7773   3.7800   3.7820   3.7850
  3.7877   3.7952   3.7991   3.8025   3.8052   3.8089   3.8126   3.8264
  3.8296   3.8355   3.8369   3.8406   3.8457   3.8484   3.8553   3.8565
  3.8604   3.8665   3.8714   3.8836   3.8867   3.8894   3.8967   3.9003
  3.9044   3.9126   3.9132   3.9142   3.9161   3.9230   3.9288   3.9348
  3.9384   3.9452   3.9510   3.9547   3.9576   3.9615   3.9656   3.9694
  3.9718   3.9735   3.9764   3.9864   3.9909   3.9954   4.0003   4.0087
  4.0154   4.0247   4.0337   4.0396   4.0446   4.0490   4.0544   4.0602
  4.0656   4.0695   4.0789   4.0887   4.1053   4.1062   4.1139   4.1224
  4.1275   4.1316   4.1353   4.1411   4.1464   4.1479   4.1511   4.1567
  4.1597   4.1624   4.1643   4.1699   4.1730   4.1786   4.1806   4.1828
  4.1858   4.1959   4.1974   4.2004   4.2088   4.2194   4.2275   4.2349
  4.2367   4.2437   4.2517   4.2595   4.2650   4.2711   4.2760   4.2817
  4.2880   4.2923   4.2992   4.3008   4.3056   4.3118   4.3139   4.3261
  4.3366   4.3413   4.3421   4.3577   4.3611   4.3668   4.3708   4.3725
  4.3736   4.3776   4.3857   4.3920   4.3970   4.4035   4.4054   4.4172
  4.4265   4.4294   4.4373   4.4386   4.4444   4.4527   4.4556   4.4617
  4.4676   4.4735   4.4809   4.4826   4.4859   4.4914   4.4931   4.4978
  4.5033   4.5115   4.5168   4.5200   4.5277   4.5298   4.5526   4.5555
  4.5589   4.5645   4.5674   4.5725   4.6007   4.6053   4.6122   4.6181
  4.6319   4.6356   4.6436   4.6488   4.6653   4.6770   4.6803   4.6877
  4.6945   4.7020   4.7093   4.7159   4.7233   4.7365   4.7384   4.7412
  4.7471   4.7617   4.7650   4.7759   4.7776   4.7860   4.7955   4.8073
  4.8125   4.8367   4.8383   4.8465   4.8499   4.8671   4.8724   4.8798
  4.8875   4.8885   4.9150   4.9164   4.9454   4.9546   4.9612   5.0012
  5.0082   5.0104   5.0316   5.0493   5.0669   5.0686   5.0848   5.0949
  5.0997   5.1021   5.1067   5.1176   5.1243   5.1335   5.1447   5.1592
  5.1601   5.1733   5.1969   5.2136   5.2189   5.2231   5.2351   5.2405
  5.2434   5.2455   5.2511   5.2559   5.2581   5.2601   5.2679   5.2734
  5.2931   5.2971   5.2973   5.2991   5.3166   5.3255   5.3310   5.3322
  5.3364   5.3394   5.3446   5.3531   5.3718   5.3786   5.3868   5.3926
  5.3992   5.4085   5.4256   5.4281   5.4439   5.4452   5.4517   5.4604
  5.4939   5.5082   5.5262   5.5408   5.5637   5.5957   5.5998   5.6136
  5.6282   5.6314   5.6556   5.6700   5.6768   5.6821   5.7180   5.7301
  5.7566   5.7571   5.7636   5.7696   5.7895   5.7977   5.8099   5.8148
  5.8730   5.8769   5.8823   5.8913   5.9187   5.9299   5.9535   5.9629
  6.0264   6.0657   6.0720   6.0723   6.2472   6.2484   6.2838   6.3034
  6.3049   6.3383   6.4128   6.4192   6.4783   6.5881   6.6836   6.7070
  6.8978   6.8984   6.9146   6.9159   6.9227   6.9232   6.9356   6.9383
  6.9479   6.9484   6.9514   6.9613   7.0013   7.0034   7.0056   7.0388
  7.0409   7.0486   7.0696   7.0741   7.0995   7.1148   7.1177   7.1198
  7.1289   7.1336   7.1471   7.1743   7.2479   7.2997   7.5009   7.5071
  7.5361   7.5371   7.5456   7.5484   7.5530   7.5631   7.5933   7.6020
  9.1147   9.1164   9.1729   9.1772   9.1866   9.1935   9.6282   9.6287
  9.6648   9.6673   9.6805   9.6853   9.7050   9.7066   9.7200   9.7259
  9.7583   9.7739  20.7906  20.7958  20.9529  20.9709  20.9772  21.0094
 22.8428  22.8753  22.8867  22.9387  22.9430  23.0464  23.1251  23.1295
 23.1341  23.1698  23.1771  23.2103  23.2967  23.3508  23.4067  23.4075
 23.4106  23.4943  23.4978  23.6023  23.6055  23.7082  23.7197  23.7943
 23.7998  23.8261  23.8342  23.9649  44.7052  44.7779
 --------------------------------------------------------------
 
          Ground-State Mulliken Net Atomic Charges

     Atom                 Charge (a.u.)
  ----------------------------------------
      1 C                    -0.134261
      2 C                    -0.183725
      3 C                    -0.516457
      4 C                     0.517479
      5 S                    -0.201939
      6 C                     0.447420
      7 C                    -0.296216
      8 C                    -0.412324
      9 C                     0.411382
     10 S                    -0.344927
     11 C                     0.366739
     12 C                    -0.269035
     13 C                    -0.393089
     14 C                     0.336662
     15 S                    -0.301864
     16 C                    -0.129838
     17 C                    -0.174824
     18 C                    -0.525221
     19 C                     0.577810
     20 S                    -0.206756
     21 C                     0.403603
     22 C                     0.366304
     23 C                    -0.165048
     24 C                     0.360259
     25 C                     0.323095
     26 C                    -0.123409
     27 C                    -0.292847
     28 C                     0.468278
     29 S                    -0.409415
     30 C                    -0.187448
     31 C                     0.451497
     32 S                    -0.439300
     33 O                    -0.598129
     34 C                    -0.503215
     35 O                    -0.613220
     36 C                    -0.472092
     37 H                     0.187762
     38 H                     0.146122
     39 H                     0.131791
     40 H                     0.106085
     41 H                     0.108406
     42 H                     0.105323
     43 H                     0.107083
     44 H                     0.185155
     45 H                     0.142551
     46 H                     0.114650
     47 H                     0.145732
     48 H                     0.150621
     49 H                     0.186657
     50 H                     0.207337
     51 H                     0.227046
     52 H                     0.187351
     53 H                     0.212648
     54 H                     0.211753
  ----------------------------------------
  Sum of atomic charges =     0.000000

 -----------------------------------------------------------------
                    Cartesian Multipole Moments
 -----------------------------------------------------------------
    Charge (ESU x 10^10)
                 0.0000
    Dipole Moment (Debye)
         X      -0.0639      Y      -0.3518      Z      -0.1361
       Tot       0.3825
    Quadrupole Moments (Debye-Ang)
        XX    -191.9517     XY      11.4774     YY    -234.5817
        XZ       2.8989     YZ      -7.1482     ZZ    -254.0959
    Octopole Moments (Debye-Ang^2)
       XXX      -4.5536    XXY     -26.5394    XYY     -44.7368
       YYY     -39.8533    XXZ      62.9635    XYZ      52.1828
       YYZ     -19.0577    XZZ      43.9469    YZZ       0.4219
       ZZZ     -12.8788
    Hexadecapole Moments (Debye-Ang^3)
      XXXX  -50352.8057   XXXY    1430.3135   XXYY  -10452.1643
      XYYY      33.3647   YYYY   -3293.5110   XXXZ     371.2573
      XXYZ     330.4960   XYYZ     156.5003   YYYZ     -69.8201
      XXZZ  -10711.0478   XYZZ      36.1213   YYZZ    -715.2110
      XZZZ     547.1162   YZZZ      51.0553   ZZZZ    -861.3566
 -----------------------------------------------------------------
Archival summary:
1\1\qnode0211\SP\ProcedureUnspecified\BasisUnspecified\622818\ahs1068\ThuAug508:59:482021ThuAug508:59:482021\0\\#,ProcedureUnspecified,BasisUnspecified,\\0,1\S\C,1,1.74456\C,2,1.38539,1,126.127\O,3,1.36637,2,120.749,1,-1.0393,0\C,3,1.39655,2,117.872,1,179.621,0\C,5,1.41354,3,119.743,2,0.105291,0\C,6,1.38556,5,122.385,3,-0.146311,0\O,7,1.36642,6,120.798,5,-179.305,0\C,7,1.3968,6,117.879,5,-0.13546,0\C,8,1.4242,7,113.715,6,-96.2769,0\H,10,1.08912,8,106.489,7,179.861,0\H,10,1.09511,8,110.915,7,60.7287,0\H,10,1.09525,8,110.982,7,-60.95,0\C,4,1.42433,3,113.719,2,97.1971,0\H,14,1.08912,4,106.488,3,-179.619,0\H,14,1.09504,4,110.901,3,-60.4839,0\H,14,1.09525,4,110.991,3,61.1847,0\C,5,1.43379,3,128.387,2,178.475,0\H,18,1.08181,5,123.142,3,-1.82501,0\C,18,1.35678,5,113.236,3,-179.511,0\C,9,1.43417,7,128.455,6,-179.346,0\H,21,1.08177,9,123.199,7,-0.358772,0\C,21,1.35653,9,113.24,7,-179.85,0\C,20,1.45248,18,127.849,5,179.803,0\C,24,1.36832,20,128.738,18,-155.032,0\H,25,1.08213,24,122.984,20,0.637627,0\C,25,1.41634,24,113.268,20,178.386,0\H,27,1.08195,25,123.85,24,-177.882,0\C,27,1.36821,25,113.231,24,0.168717,0\C,23,1.4531,21,128.077,9,-179.981,0\C,30,1.36843,23,128.44,21,-155.417,0\H,31,1.08218,30,122.938,23,0.541924,0\C,31,1.41632,30,113.286,23,-179.792,0\H,33,1.08195,31,123.924,30,178.581,0\C,33,1.36789,31,113.222,30,-0.0825365,0\C,29,1.45462,27,128.923,25,-179.063,0\C,36,1.36854,29,128.409,27,148.332,0\H,37,1.08218,36,122.824,29,-1.19247,0\C,37,1.42061,36,113.126,29,-179.694,0\H,39,1.08137,37,124.017,36,179.53,0\C,39,1.36055,37,112.612,36,0.0959135,0\H,41,1.07925,39,128.341,37,179.47,0\C,35,1.45524,33,128.719,31,179.696,0\C,43,1.3682,35,128.54,33,-145.926,0\H,44,1.08216,43,122.772,35,1.23575,0\C,44,1.42078,43,113.106,35,179.567,0\H,46,1.08139,44,123.971,43,-179.271,0\C,46,1.36075,44,112.627,43,-0.0821756,0\H,48,1.07932,46,128.224,44,-179.55,0\S,41,1.72069,39,111.793,37,-0.67217,0\S,48,1.72074,46,111.781,44,0.690967,0\S,29,1.73469,27,110.754,25,1.22321,0\S,35,1.73494,33,110.786,31,-0.0486392,0\S,6,1.74525,5,111.422,3,-179.483,0\\\@

 Total job time:  44834.94s(wall), 1039189.83s(cpu) 
 Thu Aug  5 08:59:48 2021

        *************************************************************
        *                                                           *
        *  Thank you very much for using Q-Chem.  Have a nice day.  *
        *                                                           *
        *************************************************************


remove work dirs /tmp/qchem103518.0 -- /tmp/qchem103518.-1
rm -rf /tmp/qchem103518
