
Running Job 1 of 2 qc.in
qchem qc.in_103518.0 /tmp/qchem103518/ 0
/software/QChem/5.3/exe/qcprog.exe_s qc.in_103518.0 /tmp/qchem103518/
                  Welcome to Q-Chem
     A Quantum Leap Into The Future Of Chemistry


 Q-Chem 5.3, Q-Chem, Inc., Pleasanton, CA (2020)

 License issued to: SRG Mark Ratner, Northwestern University

 Yihan Shao,  Zhengting Gan,  E. Epifanovsky,  A. T. B. Gilbert,  M. Wormit,  
 J. Kussmann,  A. W. Lange,  A. Behn,  Jia Deng,  Xintian Feng,  D. Ghosh,  
 M. Goldey,  P. R. Horn,  L. D. Jacobson,  I. Kaliman,  T. Kus,  A. Landau,  
 Jie Liu,  E. I. Proynov,  R. M. Richard,  R. P. Steele,  E. J. Sundstrom,  
 H. L. Woodcock III,  P. M. Zimmerman,  D. Zuev,  B. Alam,  B. Albrecht,  
 A. Aldossary,  E. Alguire,  S. A. Baeppler,  D. Barton,  Z. Benda,  
 Y. A. Bernard,  E. J. Berquist,  K. B. Bravaya,  H. Burton,  K. Carter-Fenk,  
 D. Casanova,  Chun-Min Chang,  Yunqing Chen,  A. Chien,  K. D. Closser,  
 M. P. Coons,  S. Coriani,  S. Dasgupta,  A. L. Dempwolff,  M. Diedenhofen,  
 Hainam Do,  R. G. Edgar,  Po-Tung Fang,  S. Faraji,  S. Fatehi,  
 Qingguo Feng,  J. Fosso-Tande,  J. Gayvert,  Qinghui Ge,  A. Ghysels,  
 G. Gidofalvi,  J. Gomes,  J. Gonthier,  S. Gulania,  A. Gunina,  D. Hait,  
 M. W. D. Hanson-Heine,  S. Hammes-Schiffer,  P. H. P. Harbach,  
 A. W. Hauser,  M. F. Herbst,  J. E. Herr,  E. G. Hohenstein,  Z. C. Holden,  
 S. Houck,  Kerwin Hui,  B. C. Huynh,  M. Ivanov,  T.-C. Jagau,  Hyunjun Ji,  
 B. Kaduk,  K. Khistyaev,  Jaehoon Kim,  P. Klunzinger,  K. Koh,  
 D. Kosenkov,  L. Koulias,  T. Kowalczyk,  C. M. Krauter,  A. Kunitsa,  
 Ka Un Lao,  A. Laurent,  K. V. Lawler,  Joonho Lee,  D. Lefrancois,  
 S. Lehtola,  D. S. Levine,  Yi-Pei Li,  You-Sheng Lin,  Fenglai Liu,  
 Kuan-Yu Liu,  E. Livshits,  M. Loipersberger,  A. Luenser,  P. Manohar,  
 E. Mansoor,  S. F. Manzer,  Shan-Ping Mao,  Yuezhi Mao,  N. Mardirossian,  
 A. V. Marenich,  T. Markovich,  L. A. Martinez-Martinez,  S. A. Maurer,  
 N. J. Mayhall,  S. C. McKenzie,  J.-M. Mewes,  P. Morgante,  A. F. Morrison,  
 J. W. Mullinax,  K. Nanda,  T. S. Nguyen-Beck,  R. Olivares-Amaya,  
 K. J. Oosterbaan,  J. A. Parkhill,  S. K. Paul,  F. Pavosevic,  Zheng Pei,  
 T. M. Perrine,  F. Plasser,  P. Pokhilko,  S. Prager,  A. Prociuk,  
 E. Ramos,  B. Rana,  D. R. Rehn,  F. Rob,  E. Rossomme,  M. Scheurer,  
 M. Schneider,  N. Sergueev,  S. M. Sharada,  S. Sharma,  W. Skomorowski,  
 D. W. Small,  T. Stauch,  C. J. Stein,  T. Stein,  Yu-Chuan Su,  
 S. P. Veccham,  Zhen Tao,  A. J. W. Thom,  A. Tkatchenko,  T. Tsuchimochi,  
 N. M. Tubman,  L. Vogt,  M. L. Vidal,  O. Vydrov,  M. A. Watson,  J. Wenzel,  
 M. de Wergifosse,  T. A. Wesolowski,  A. White,  J. Witte,  A. Yamada,  
 Jun Yang,  K. Yao,  S. Yeganeh,  S. R. Yost,  Zhi-Qiang You,  A. Zech,  
 Igor Ying Zhang,  Xing Zhang,  Yan Zhao,  Ying Zhu,  B. R. Brooks,  
 G. K. L. Chan,  C. J. Cramer,  M. S. Gordon,  W. J. Hehre,  A. Klamt,  
 M. W. Schmidt,  C. D. Sherrill,  D. G. Truhlar,  A. Aspuru-Guzik,  R. Baer,  
 A. T. Bell,  N. A. Besley,  Jeng-Da Chai,  A. E. DePrince, III,  
 R. A. DiStasio Jr.,  A. Dreuw,  B. D. Dunietz,  T. R. Furlani,  
 Chao-Ping Hsu,  Yousung Jung,  Jing Kong,  D. S. Lambrecht,  WanZhen Liang,  
 C. Ochsenfeld,  V. A. Rassolov,  L. V. Slipchenko,  J. E. Subotnik,  
 T. Van Voorhis,  J. M. Herbert,  A. I. Krylov,  P. M. W. Gill,  M. Head-Gordon

 Contributors to earlier versions of Q-Chem not listed above: 
 R. D. Adamson,  B. Austin,  J. Baker,  G. J. O. Beran,  K. Brandhorst,  
 S. T. Brown,  E. F. C. Byrd,  A. K. Chakraborty,  C.-L. Cheng,  
 Siu Hung Chien,  D. M. Chipman,  D. L. Crittenden,  H. Dachsel,  
 R. J. Doerksen,  A. D. Dutoi,  L. Fusti-Molnar,  W. A. Goddard III,  
 A. Golubeva-Zadorozhnaya,  S. R. Gwaltney,  G. Hawkins,  A. Heyden,  
 S. Hirata,  G. Kedziora,  F. J. Keil,  C. Kelley,  Jihan Kim,  R. A. King,  
 R. Z. Khaliullin,  P. P. Korambath,  W. Kurlancheek,  A. M. Lee,  M. S. Lee,  
 S. V. Levchenko,  Ching Yeh Lin,  D. Liotard,  R. C. Lochan,  I. Lotan,  
 P. E. Maslen,  N. Nair,  D. P. O'Neill,  D. Neuhauser,  E. Neuscamman,  
 C. M. Oana,  R. Olson,  B. Peters,  R. Peverati,  P. A. Pieniazek,  
 Y. M. Rhee,  J. Ritchie,  M. A. Rohrdanz,  E. Rosta,  N. J. Russ,  
 H. F. Schaefer III,  N. E. Schultz,  N. Shenvi,  A. C. Simmonett,  A. Sodt,  
 D. Stuck,  K. S. Thanthiriwatte,  V. Vanovschi,  Tao Wang,  A. Warshel,  
 C. F. Williams,  Q. Wu,  X. Xu,  W. Zhang

 Please cite Q-Chem as follows:
 Y. Shao et al., Mol. Phys. 113, 184-215 (2015)
 DOI: 10.1080/00268976.2014.952696

 Q-Chem 5.3.1 for Intel X86 EM64T Linux

 Parts of Q-Chem use Armadillo 9.800.1 (Horizon Scraper).
 http://arma.sourceforge.net/

 Q-Chem begins on Wed Aug  4 20:06:50 2021  

Host: 
0

     Scratch files written to /tmp/qchem103518//
 Aug2920 |scratch|qcdevops|jenkins|workspace|build_RNUM 4082   
Processing $rem in /software/QChem/5.3/config/preferences:
Processing $rem in /home/ahs1068/.qchemrc:

Checking the input file for inconsistencies... 	...done.

--------------------------------------------------------------
User input:
--------------------------------------------------------------
$comment
TDDFT with cam-b3lyp functional 
$end

$molecule
0 1
C   10.9009195    3.2315744   -1.4595223
C    9.8976842    3.9238324   -2.1238042
C    8.6214657    3.3835893   -1.9301373
C    8.6202982    2.2611147   -1.1093738
S   10.2033387    1.9459385   -0.6287137
C    5.1490351    0.5400424   -0.3393349
C    6.1485009   -0.1552298    0.3337741
C    7.4285363    0.3711153    0.1217182
C    7.4357066    1.4822887   -0.7156229
S    5.8554263    1.8055342   -1.1981279
C   -4.7274031   -0.5595062   -0.0927069
C   -5.6982920    0.1435482   -0.7987384
C   -7.0046727   -0.1989800   -0.4371992
C   -7.0643265   -1.1674128    0.5589058
S   -5.4927899   -1.6113250    0.9791935
C  -10.6412580   -2.2318635    1.8594571
C   -9.6789092   -2.9289398    2.5772412
C   -8.3664219   -2.6323101    2.1912002
C   -8.2960516   -1.6966108    1.1654467
S   -9.8627856   -1.2436129    0.7439304
C   -0.9853590   -0.6799395    0.1356453
C   -0.9700791    0.3810742   -0.7777950
C    0.2085733    0.9784260   -1.2403239
C    1.4247131    0.4761466   -0.7251576
C    1.4137377   -0.5942755    0.1778748
C    0.2326735   -1.1952408    0.6358500
C   -2.2892778   -1.1136846    0.4360444
C   -3.2729754   -0.3808159   -0.2303333
S   -2.5412012    0.7843616   -1.2082230
C    2.7207326    0.9524276   -0.9803138
C    3.7078365    0.2449825   -0.2956938
S    2.9888888   -0.9729542    0.6284753
O    0.1224321    1.9986007   -2.1297797
C    0.6706969    1.9791487   -3.3963685
O    0.3117678   -2.2148152    1.5253883
C   -0.1730135   -2.1561567    2.8156855
H   11.9533364    3.4803170   -1.4742814
H   10.0846350    4.7986273   -2.7322451
H    7.7304198    3.8056145   -2.3761783
H    5.9637467   -1.0145916    0.9647697
H    8.3180008   -0.0469154    0.5743881
H   -5.4751131    0.8901414   -1.5494323
H   -7.8764120    0.2603972   -0.8842170
H  -11.7110438   -2.3100141    1.9981667
H   -9.9211975   -3.6322952    3.3625781
H   -7.4999552   -3.0855614    2.6543804
H   -2.5280426   -1.9245511    1.1061847
H    2.9520941    1.7935036   -1.6135374
H    0.4373015    2.9376575   -3.9034034
H    0.2208534    1.1515050   -3.9848641
H    1.7662262    1.8526832   -3.3865831
H    0.0259450   -3.1245238    3.3189268
H   -1.2593113   -1.9627167    2.8506078
H    0.3525229   -1.3536992    3.3755632
$end

$rem
JOBTYPE        opt
METHOD         wB97X-D
BASIS          6-311G(d,p)
SCF_ALGORITHM  DIIS
SCF_MAX_CYCLES 100
$end

--------------------------------------------------------------
 ----------------------------------------------------------------
             Standard Nuclear Orientation (Angstroms)
    I     Atom           X                Y                Z
 ----------------------------------------------------------------
    1      C      11.2067870228     0.5555551013     0.5802907328
    2      C      10.4573849075     1.7187172417     0.6917490351
    3      C       9.0824417068     1.5172441254     0.5273017390
    4      C       8.7482032576     0.1892880907     0.2855979066
    5      S      10.1612547151    -0.7270140275     0.2776354948
    6      C       4.9266955986    -0.6987787972    -0.1749818302
    7      C       5.6707580837    -1.8693665528    -0.2822495701
    8      C       7.0486734167    -1.6648388533    -0.1407743092
    9      C       7.3883351771    -0.3339074109     0.0809219697
   10      S       5.9798752448     0.5884123862     0.0932250496
   11      C      -4.9182755104     0.6736969916    -0.0930179156
   12      C      -5.6290596938     1.8663466631    -0.0049053148
   13      C      -7.0117232228     1.6827616998     0.0910364433
   14      C      -7.3912236571     0.3450046215     0.0854458408
   15      S      -6.0091829356    -0.6106962354    -0.0560687995
   16      C     -11.2404987808    -0.4631153758     0.4713875778
   17      C     -10.5381442625    -1.6582323416     0.3962998685
   18      C      -9.1562765613    -1.4889214163     0.2499604957
   19      C      -8.7697235353    -0.1541199631     0.2107528374
   20      S     -10.1450505216     0.8073602756     0.3576199421
   21      C      -1.3391021692    -0.4311905501    -0.2886825945
   22      C      -0.9930562691     0.9190166515    -0.1562081584
   23      C       0.3311313703     1.3726513838    -0.1292589166
   24      C       1.3447432866     0.3925153719    -0.2220016086
   25      C       1.0021367553    -0.9574771069    -0.3687412377
   26      C      -0.3246088612    -1.4096956106    -0.4012637546
   27      C      -2.7312570738    -0.6320301537    -0.3008004811
   28      C      -3.4529257386     0.5549848905    -0.1629369187
   29      S      -2.3820163674     1.8549918694    -0.0509756522
   30      C       2.7327841726     0.5910134196    -0.1474640641
   31      C       3.4609271346    -0.5929931429    -0.2546718547
   32      S       2.3977751026    -1.8925040306    -0.4426168875
   33      O       0.5673289832     2.7020983749    -0.0024136154
   34      C       1.2458140639     3.4669773038    -0.9296881589
   35      O      -0.5675291639    -2.7371807212    -0.5271178776
   36      C      -1.1789928390    -3.5076801429     0.4402307710
   37      H      12.2820976071     0.4881038533     0.6742562578
   38      H      10.8947120757     2.6885032500     0.8884139621
   39      H       8.3592701774     2.3200533156     0.5868078926
   40      H       5.2361220198    -2.8455509244    -0.4523901870
   41      H       7.7703610042    -2.4693734278    -0.1927160635
   42      H      -5.1665796510     2.8445342395    -0.0013227892
   43      H      -7.7082024762     2.5065230995     0.1753900951
   44      H     -12.3115881849    -0.3673113354     0.5870534826
   45      H     -11.0142107857    -2.6281481520     0.4491247839
   46      H      -8.4655488487    -2.3189529157     0.1815491074
   47      H      -3.2127819605    -1.5916369173    -0.4051545660
   48      H       3.2090785630     1.5459551264     0.0046513507
   49      H       1.2807251100     4.5166032240    -0.5728078307
   50      H       0.7054625611     3.4433096562    -1.8998120869
   51      H       2.2812985139     3.1239200235    -1.0920377208
   52      H      -1.2489425875    -4.5531833076     0.0760861618
   53      H      -2.1967733701    -3.1543666448     0.6810084142
   54      H      -0.5670688061    -3.4976840221     1.3670741458
 ----------------------------------------------------------------
 Molecular Point Group                 C1    NOp =  1
 Largest Abelian Subgroup              C1    NOp =  1
 Nuclear Repulsion Energy =        4356.27740647 hartrees
 There are      149 alpha and      149 beta electrons
 Requested basis set is 6-311G(d,p)
 There are 294 shells and 804 basis functions

 Total QAlloc Memory Limit   8000 MB
 Mega-Array Size       188 MB
 MEM_STATIC part       192 MB
 A cutoff of  1.0D-11 yielded  15051 shell pairs
 There are    119325 function pairs (    129562 Cartesian)
 Smallest overlap matrix eigenvalue = 9.99E-05

 Scale SEOQF with 1.000000e-02/1.000000e-01/1.000000e-01

 Standard Electronic Orientation quadrupole field applied
 Nucleus-field energy     =     0.0000000933 hartrees
 Guess from superposition of atomic densities
 Warning:  Energy on first SCF cycle will be non-variational
 SAD guess density has 298.000000 electrons

 -----------------------------------------------------------------------
  General SCF calculation program by
  Eric Jon Sundstrom, Paul Horn, Yuezhi Mao, Dmitri Zuev, Alec White,
  David Stuck, Shaama M.S., Shane Yost, Joonho Lee, David Small,
  Daniel Levine, Susi Lehtola, Hugh Burton, Evgeny Epifanovsky,
  Bang C. Huynh
 -----------------------------------------------------------------------
 Exchange:     0.2220 Hartree-Fock + 1.0000 wB97X-D + LR-HF
 Correlation:  1.0000 wB97X-D
 Using SG-2 standard quadrature grid
 Dispersion:   Grimme D
 using 48 threads for integral computing
 -------------------------------------------------------
 OpenMP Integral computing Module                
 Release: version 1.0, May 2013, Q-Chem Inc. Pittsburgh 
 -------------------------------------------------------
 using 48 threads for integral computing
 -------------------------------------------------------
 OpenMP Integral computing Module                
 Release: version 1.0, May 2013, Q-Chem Inc. Pittsburgh 
 -------------------------------------------------------
 A restricted SCF calculation will be
 performed using DIIS
 SCF converges when DIIS error is below 1.0e-08
 ---------------------------------------
  Cycle       Energy         DIIS error
 ---------------------------------------
    1   -3630.3494420433      2.64e-02  
    2   -3616.8390100465      1.81e-03  
    3   -3616.9278692403      1.62e-03  
    4   -3617.1179944793      2.49e-04  
    5   -3617.1222973167      1.12e-04  
    6   -3617.1233001337      3.99e-05  
    7   -3617.1234383338      1.03e-05  
    8   -3617.1234512023      4.95e-06  
    9   -3617.1234553542      1.53e-06  
   10   -3617.1234558880      8.82e-07  
   11   -3617.1234560054      2.83e-07  
   12   -3617.1234560200      1.49e-07  
   13   -3617.1234560232      4.19e-08  
   14   -3617.1234560225      1.48e-08  
   15   -3617.1234560210      4.79e-09  Convergence criterion met
 ---------------------------------------
 SCF time:   CPU 2237.68s  wall 64.00s 
 SCF   energy in the final basis set =    -3617.1234560210
 Total energy in the final basis set =    -3617.1234560210
 
 --------------------------------------------------------------
 
                    Orbital Energies (a.u.)
 --------------------------------------------------------------
 
 Alpha MOs
 -- Occupied --
-89.0514 -89.0510 -89.0484 -89.0482 -89.0378 -89.0370 -19.2734 -19.2720
-10.3595 -10.3591 -10.3418 -10.3413 -10.3406 -10.3405 -10.3391 -10.3391
-10.3372 -10.3371 -10.3358 -10.3357 -10.3217 -10.3209 -10.3189 -10.3189
-10.3042 -10.3040 -10.2981 -10.2978 -10.2968 -10.2964 -10.2959 -10.2955
-10.2948 -10.2947 -10.2941 -10.2941  -8.0991  -8.0987  -8.0958  -8.0956
 -8.0861  -8.0855  -6.0477  -6.0473  -6.0443  -6.0441  -6.0438  -6.0434
 -6.0407  -6.0404  -6.0404  -6.0402  -6.0378  -6.0376  -6.0350  -6.0343
 -6.0310  -6.0303  -6.0271  -6.0265  -1.1822  -1.1811  -1.0296  -1.0248
 -1.0182  -1.0095  -1.0002  -0.9963  -0.9307  -0.8961  -0.8884  -0.8773
 -0.8616  -0.8578  -0.8515  -0.8465  -0.8420  -0.8415  -0.8265  -0.8236
 -0.8082  -0.7934  -0.7565  -0.7382  -0.7057  -0.6991  -0.6834  -0.6820
 -0.6755  -0.6605  -0.6535  -0.6501  -0.6323  -0.6321  -0.6296  -0.6253
 -0.6199  -0.6186  -0.6053  -0.6044  -0.5713  -0.5705  -0.5628  -0.5598
 -0.5567  -0.5509  -0.5319  -0.5199  -0.5158  -0.5126  -0.5109  -0.5103
 -0.5080  -0.5053  -0.5038  -0.4940  -0.4929  -0.4914  -0.4865  -0.4860
 -0.4803  -0.4793  -0.4694  -0.4688  -0.4682  -0.4667  -0.4464  -0.4418
 -0.4379  -0.4364  -0.4264  -0.4260  -0.4218  -0.4214  -0.4047  -0.3855
 -0.3800  -0.3744  -0.3559  -0.3535  -0.3458  -0.3446  -0.3381  -0.3371
 -0.3338  -0.3205  -0.2782  -0.2736  -0.2448
 -- Virtual --
 -0.0237   0.0004   0.0334   0.0562   0.0601   0.0882   0.0963   0.0975
  0.1019   0.1025   0.1056   0.1075   0.1088   0.1137   0.1167   0.1198
  0.1215   0.1271   0.1320   0.1352   0.1412   0.1423   0.1444   0.1457
  0.1481   0.1481   0.1563   0.1576   0.1647   0.1653   0.1758   0.1800
  0.1823   0.1837   0.1867   0.1920   0.1965   0.2043   0.2053   0.2071
  0.2243   0.2262   0.2335   0.2363   0.2380   0.2419   0.2426   0.2455
  0.2474   0.2533   0.2569   0.2604   0.2719   0.2783   0.2800   0.2852
  0.2876   0.2949   0.3009   0.3031   0.3095   0.3117   0.3214   0.3238
  0.3294   0.3335   0.3401   0.3552   0.3557   0.3629   0.3662   0.3689
  0.3704   0.3763   0.3767   0.3818   0.3914   0.3962   0.4002   0.4122
  0.4148   0.4259   0.4288   0.4301   0.4337   0.4430   0.4448   0.4511
  0.4574   0.4590   0.4649   0.4693   0.4717   0.4731   0.4759   0.4805
  0.4813   0.4858   0.4868   0.4880   0.4897   0.4939   0.4957   0.4991
  0.4996   0.5020   0.5035   0.5062   0.5090   0.5129   0.5137   0.5169
  0.5218   0.5247   0.5329   0.5337   0.5357   0.5386   0.5438   0.5474
  0.5511   0.5556   0.5589   0.5622   0.5649   0.5757   0.5774   0.5885
  0.5924   0.5978   0.5989   0.6079   0.6112   0.6128   0.6152   0.6164
  0.6209   0.6251   0.6331   0.6350   0.6389   0.6484   0.6515   0.6545
  0.6590   0.6591   0.6663   0.6748   0.6792   0.6814   0.6826   0.6854
  0.6871   0.6875   0.6917   0.6951   0.6993   0.7031   0.7131   0.7145
  0.7155   0.7218   0.7259   0.7366   0.7432   0.7457   0.7475   0.7504
  0.7541   0.7652   0.7690   0.7757   0.7844   0.7858   0.7874   0.7891
  0.7927   0.7942   0.7952   0.7989   0.8000   0.8055   0.8058   0.8161
  0.8189   0.8234   0.8252   0.8306   0.8328   0.8383   0.8400   0.8440
  0.8484   0.8507   0.8571   0.8665   0.8684   0.8746   0.8765   0.8862
  0.8953   0.8957   0.9005   0.9041   0.9083   0.9103   0.9138   0.9180
  0.9227   0.9301   0.9306   0.9415   0.9422   0.9476   0.9495   0.9593
  0.9610   0.9683   0.9737   0.9827   0.9857   0.9891   1.0012   1.0022
  1.0139   1.0192   1.0210   1.0276   1.0340   1.0451   1.0459   1.0498
  1.0600   1.0618   1.0701   1.0756   1.0784   1.0804   1.0831   1.0913
  1.0961   1.0965   1.1045   1.1079   1.1103   1.1140   1.1216   1.1240
  1.1407   1.1428   1.1494   1.1518   1.1555   1.1566   1.1570   1.1672
  1.1672   1.1681   1.1818   1.1877   1.2013   1.2174   1.2239   1.2265
  1.2403   1.2541   1.2581   1.2596   1.2600   1.2629   1.2810   1.2820
  1.2850   1.2890   1.2931   1.3155   1.3243   1.3390   1.3459   1.3727
  1.3819   1.3954   1.4014   1.4169   1.4188   1.4255   1.4261   1.4501
  1.4542   1.4669   1.4675   1.4797   1.4813   1.4821   1.4837   1.4879
  1.4913   1.5191   1.5196   1.5262   1.5274   1.5643   1.5655   1.5675
  1.5692   1.5714   1.5855   1.5954   1.5996   1.6043   1.6059   1.6147
  1.6199   1.6204   1.6214   1.6238   1.6244   1.6408   1.6463   1.6519
  1.6562   1.6579   1.6646   1.6677   1.6685   1.6709   1.6805   1.6818
  1.6833   1.6865   1.6922   1.6996   1.7053   1.7059   1.7116   1.7209
  1.7219   1.7279   1.7433   1.7450   1.7571   1.7589   1.7676   1.7690
  1.7721   1.7823   1.7857   1.7892   1.7924   1.7979   1.8001   1.8045
  1.8093   1.8116   1.8181   1.8217   1.8303   1.8356   1.8440   1.8448
  1.8534   1.8624   1.8729   1.8757   1.8787   1.8865   1.8889   1.8956
  1.9050   1.9076   1.9158   1.9236   1.9245   1.9300   1.9313   1.9401
  1.9475   1.9538   1.9583   1.9690   1.9703   1.9718   1.9837   1.9864
  1.9891   2.0046   2.0129   2.0192   2.0214   2.0309   2.0386   2.0573
  2.0612   2.0628   2.0632   2.0799   2.0883   2.0907   2.0924   2.1014
  2.1179   2.1220   2.1274   2.1311   2.1387   2.1507   2.1534   2.1594
  2.1625   2.1737   2.1882   2.1901   2.1930   2.1963   2.1989   2.2074
  2.2140   2.2161   2.2256   2.2375   2.2390   2.2476   2.2642   2.2716
  2.2764   2.2864   2.2997   2.3110   2.3156   2.3205   2.3300   2.3358
  2.3474   2.3572   2.3586   2.3640   2.3666   2.3798   2.3857   2.3994
  2.4128   2.4272   2.4383   2.4396   2.4445   2.4893   2.4922   2.5135
  2.5135   2.5244   2.5378   2.5397   2.5426   2.5511   2.5593   2.5668
  2.5802   2.5868   2.5883   2.5918   2.6037   2.6197   2.6217   2.6306
  2.6636   2.6902   2.6982   2.6993   2.7048   2.7050   2.7060   2.7125
  2.7154   2.7230   2.7273   2.7283   2.7318   2.7361   2.7462   2.7464
  2.7473   2.7524   2.7540   2.7607   2.7624   2.7659   2.7844   2.7892
  2.7942   2.8071   2.8091   2.8149   2.8314   2.8373   2.8605   2.8670
  2.8802   2.8806   2.8960   2.9035   2.9096   2.9127   2.9672   2.9718
  2.9733   2.9799   2.9871   3.0066   3.0219   3.0318   3.0409   3.0527
  3.0547   3.0634   3.0817   3.0913   3.0968   3.1336   3.1781   3.1797
  3.1844   3.1856   3.1993   3.2013   3.2056   3.2137   3.2380   3.2417
  3.2447   3.2521   3.2723   3.2888   3.3001   3.3069   3.3111   3.3442
  3.3518   3.3535   3.3797   3.3841   3.3933   3.4019   3.4245   3.4326
  3.4499   3.4536   3.4554   3.4740   3.4771   3.4801   3.5009   3.5030
  3.5220   3.5302   3.5597   3.5598   3.5753   3.6548   3.6739   3.6805
  3.7442   3.7576   3.7684   3.8187   3.8626   3.8644   3.8885   3.9077
  3.9185   3.9762   4.0000   4.0395   4.0457   4.0833   4.1154   4.1155
  4.1781   4.2212   4.2271   4.3038   4.3130   4.3361   4.3791   4.4372
  4.5447   4.6042   4.7362   4.8426   4.9597   5.1463   5.1518   5.3316
  5.3640   5.9087   5.9589   7.9537   7.9547   7.9616   7.9635   7.9907
  8.0341  17.3154  17.3156  17.3348  17.3357  17.3518  17.3582  17.5662
 17.5666  17.6008  17.6029  17.6279  17.6328  17.6782  17.6900  17.7019
 17.7122  17.7398  17.7431  23.4973  23.6140  23.6430  23.7507  23.7737
 23.8410  23.8745  23.9290  23.9340  23.9499  23.9549  23.9571  23.9637
 23.9663  24.0384  24.1329  24.1386  24.1412  24.1459  24.1650  24.1657
 24.1869  24.2389  24.2544  24.2599  24.2625  24.2719  24.2747  50.0801
 50.0835 189.1869 189.1879 189.1950 189.1972 189.2251 189.2722
 --------------------------------------------------------------
 
          Ground-State Mulliken Net Atomic Charges

     Atom                 Charge (a.u.)
  ----------------------------------------
      1 C                    -0.314937
      2 C                    -0.107540
      3 C                    -0.088317
      4 C                    -0.226658
      5 S                     0.342941
      6 C                    -0.252024
      7 C                    -0.074149
      8 C                    -0.081241
      9 C                    -0.222134
     10 S                     0.388885
     11 C                    -0.246064
     12 C                    -0.077079
     13 C                    -0.080471
     14 C                    -0.218551
     15 S                     0.384881
     16 C                    -0.315009
     17 C                    -0.108126
     18 C                    -0.086793
     19 C                    -0.228002
     20 S                     0.343111
     21 C                    -0.012276
     22 C                    -0.220394
     23 C                     0.186028
     24 C                    -0.013101
     25 C                    -0.216882
     26 C                     0.184090
     27 C                    -0.038875
     28 C                    -0.220981
     29 S                     0.336407
     30 C                    -0.042242
     31 C                    -0.215633
     32 S                     0.333229
     33 O                    -0.366437
     34 C                    -0.132394
     35 O                    -0.366639
     36 C                    -0.132421
     37 H                     0.151393
     38 H                     0.115381
     39 H                     0.122130
     40 H                     0.125568
     41 H                     0.123488
     42 H                     0.126107
     43 H                     0.123730
     44 H                     0.151381
     45 H                     0.115287
     46 H                     0.121687
     47 H                     0.126878
     48 H                     0.128091
     49 H                     0.128511
     50 H                     0.108850
     51 H                     0.100418
     52 H                     0.128280
     53 H                     0.100189
     54 H                     0.108426
  ----------------------------------------
  Sum of atomic charges =     0.000000

 -----------------------------------------------------------------
                    Cartesian Multipole Moments
 -----------------------------------------------------------------
    Charge (ESU x 10^10)
                -0.0000
    Dipole Moment (Debye)
         X       0.0502      Y       0.0486      Z       0.3992
       Tot       0.4053
    Quadrupole Moments (Debye-Ang)
        XX    -193.7336     XY      13.5843     YY    -225.0990
        XZ      -1.1782     YZ      -4.9282     ZZ    -261.6013
    Octopole Moments (Debye-Ang^2)
       XXX      -6.4607    XXY       0.3606    XYY      -0.4366
       YYY       0.1053    XXZ      76.4786    XYZ      16.2061
       YYZ       0.4252    XZZ       3.7364    YZZ       4.3855
       ZZZ      -4.9594
    Hexadecapole Moments (Debye-Ang^3)
      XXXX  -50853.8731   XXXY    1141.7227   XXYY  -10201.9641
      XYYY     162.4994   YYYY   -3393.0990   XXXZ      60.6317
      XXYZ     137.4133   XYYZ     -12.3568   YYYZ     -48.6013
      XXZZ  -11315.9632   XYZZ      -0.4282   YYZZ    -736.6871
      XZZZ      -5.9077   YZZZ      -7.8673   ZZZZ    -515.4138
 -----------------------------------------------------------------
 Calculating analytic gradient of the SCF energy
 Gradient of SCF Energy
            1           2           3           4           5           6
    1   0.0127619  -0.0181823   0.0084704   0.0217086  -0.0104257   0.0122848
    2  -0.0363525   0.0051440   0.0077326  -0.0367605   0.0441440   0.0427090
    3  -0.0045576  -0.0009334   0.0021565  -0.0036013   0.0060445   0.0067981
            7           8           9          10          11          12
    1   0.0092000  -0.0065805  -0.0230377   0.0070763  -0.0134061  -0.0099823
    2  -0.0057759  -0.0080062   0.0387695  -0.0463274  -0.0424088   0.0053945
    3   0.0000504  -0.0021024   0.0036471  -0.0062450  -0.0011415   0.0011736
           13          14          15          16          17          18
    1   0.0073237   0.0218918  -0.0051887  -0.0113681   0.0178337  -0.0084262
    2   0.0079956  -0.0384133   0.0453849   0.0374019  -0.0054364  -0.0076612
    3  -0.0008391  -0.0027030   0.0009356   0.0010936  -0.0018895   0.0006840
           19          20          21          22          23          24
    1  -0.0204665   0.0085977  -0.0213008  -0.0304985   0.0012456   0.0217178
    2   0.0376160  -0.0452581   0.0294103   0.0045314   0.0098248  -0.0290471
    3   0.0023182  -0.0006542   0.0015578   0.0022042   0.0128129  -0.0008943
           25          26          27          28          29          30
    1   0.0312277  -0.0028498   0.0322911   0.0064270   0.0150235  -0.0330439
    2  -0.0044152  -0.0105863  -0.0187226   0.0597283  -0.0607707   0.0181594
    3  -0.0011808  -0.0132181  -0.0025192   0.0057069  -0.0067652   0.0009875
           31          32          33          34          35          36
    1  -0.0063045  -0.0144264   0.0145124  -0.0092349  -0.0125270   0.0078519
    2  -0.0586405   0.0594193   0.0033642  -0.0095852  -0.0028204   0.0096028
    3  -0.0079883   0.0059077  -0.0349471   0.0287037   0.0364796  -0.0292357
           37          38          39          40          41          42
    1   0.0030837  -0.0008538   0.0012172   0.0016640  -0.0011499  -0.0019064
    2   0.0069076   0.0002695   0.0009271  -0.0006353  -0.0009468   0.0008380
    3   0.0014000   0.0000526   0.0001367   0.0000911  -0.0000711   0.0003238
           43          44          45          46          47          48
    1   0.0013286  -0.0034023   0.0008605  -0.0012369  -0.0001530   0.0000546
    2   0.0010577  -0.0067926  -0.0002509  -0.0007674   0.0013921  -0.0019358
    3  -0.0001423   0.0004198   0.0001018   0.0002932   0.0010104  -0.0007723
           49          50          51          52          53          54
    1   0.0026272  -0.0065748   0.0044663  -0.0025555  -0.0048378   0.0071722
    2   0.0130258  -0.0017947  -0.0017939  -0.0130538   0.0024514   0.0017574
    3   0.0004195  -0.0051521   0.0004011  -0.0005064  -0.0003101   0.0044583
 Max gradient component =       6.077E-02
 RMS gradient           =       1.813E-02
 Gradient time:  CPU 380.05 s  wall 18.45 s
 Geometry Optimization Parameters
   NAtoms,    NIC,     NZ,  NCons,   NDum,   NFix, NCnnct, MaxDiis
       54     404       0       0       0       0       0       0


** GEOMETRY OPTIMIZATION IN DELOCALIZED INTERNAL COORDINATES **
   Searching for a Minimum

   Optimization Cycle:   1

                       Coordinates (Angstroms)
     ATOM                X               Y               Z
      1  C        11.2067870228    0.5555551013    0.5802907328
      2  C        10.4573849075    1.7187172417    0.6917490351
      3  C         9.0824417068    1.5172441254    0.5273017390
      4  C         8.7482032576    0.1892880907    0.2855979066
      5  S        10.1612547151   -0.7270140275    0.2776354948
      6  C         4.9266955986   -0.6987787972   -0.1749818302
      7  C         5.6707580837   -1.8693665528   -0.2822495701
      8  C         7.0486734167   -1.6648388533   -0.1407743092
      9  C         7.3883351771   -0.3339074109    0.0809219697
     10  S         5.9798752448    0.5884123862    0.0932250496
     11  C        -4.9182755104    0.6736969916   -0.0930179156
     12  C        -5.6290596938    1.8663466631   -0.0049053148
     13  C        -7.0117232228    1.6827616998    0.0910364433
     14  C        -7.3912236571    0.3450046215    0.0854458408
     15  S        -6.0091829356   -0.6106962354   -0.0560687995
     16  C       -11.2404987808   -0.4631153758    0.4713875778
     17  C       -10.5381442625   -1.6582323416    0.3962998685
     18  C        -9.1562765613   -1.4889214163    0.2499604957
     19  C        -8.7697235353   -0.1541199631    0.2107528374
     20  S       -10.1450505216    0.8073602756    0.3576199421
     21  C        -1.3391021692   -0.4311905501   -0.2886825945
     22  C        -0.9930562691    0.9190166515   -0.1562081584
     23  C         0.3311313703    1.3726513838   -0.1292589166
     24  C         1.3447432866    0.3925153719   -0.2220016086
     25  C         1.0021367553   -0.9574771069   -0.3687412377
     26  C        -0.3246088612   -1.4096956106   -0.4012637546
     27  C        -2.7312570738   -0.6320301537   -0.3008004811
     28  C        -3.4529257386    0.5549848905   -0.1629369187
     29  S        -2.3820163674    1.8549918694   -0.0509756522
     30  C         2.7327841726    0.5910134196   -0.1474640641
     31  C         3.4609271346   -0.5929931429   -0.2546718547
     32  S         2.3977751026   -1.8925040306   -0.4426168875
     33  O         0.5673289832    2.7020983749   -0.0024136154
     34  C         1.2458140639    3.4669773038   -0.9296881589
     35  O        -0.5675291639   -2.7371807212   -0.5271178776
     36  C        -1.1789928390   -3.5076801429    0.4402307710
     37  H        12.2820976071    0.4881038533    0.6742562578
     38  H        10.8947120757    2.6885032500    0.8884139621
     39  H         8.3592701774    2.3200533156    0.5868078926
     40  H         5.2361220198   -2.8455509244   -0.4523901870
     41  H         7.7703610042   -2.4693734278   -0.1927160635
     42  H        -5.1665796510    2.8445342395   -0.0013227892
     43  H        -7.7082024762    2.5065230995    0.1753900951
     44  H       -12.3115881849   -0.3673113354    0.5870534826
     45  H       -11.0142107857   -2.6281481520    0.4491247839
     46  H        -8.4655488487   -2.3189529157    0.1815491074
     47  H        -3.2127819605   -1.5916369173   -0.4051545660
     48  H         3.2090785630    1.5459551264    0.0046513507
     49  H         1.2807251100    4.5166032240   -0.5728078307
     50  H         0.7054625611    3.4433096562   -1.8998120869
     51  H         2.2812985139    3.1239200235   -1.0920377208
     52  H        -1.2489425875   -4.5531833076    0.0760861618
     53  H        -2.1967733701   -3.1543666448    0.6810084142
     54  H        -0.5670688061   -3.4976840221    1.3670741458
   Point Group: c1    Number of degrees of freedom:   156


   Energy is  -3617.123456021


 Attempting to generate delocalized internal coordinates
 Initial Hessian constructed with Jon Baker's OPTIMIZE code

156 Hessian modes will be used to form the next step
  Hessian Eigenvalues:
     0.012907    0.012917    0.012959    0.012969    0.017019    0.017062
     0.017183    0.017204    0.017404    0.017429    0.017673    0.017712
     0.018252    0.018343    0.018586    0.018661    0.018721    0.018809
     0.018857    0.018866    0.020755    0.020889    0.021009    0.021035
     0.021304    0.021374    0.021438    0.021471    0.021547    0.021559
     0.021735    0.021970    0.022069    0.022283    0.022555    0.022584
     0.022705    0.022831    0.022848    0.022867    0.022997    0.023025
     0.023050    0.023182    0.023310    0.023389    0.023408    0.101638
     0.102041    0.105679    0.105729    0.159914    0.159977    0.159993
     0.159994    0.159996    0.159997    0.159999    0.159999    0.159999
     0.160000    0.160000    0.160000    0.160000    0.160000    0.160000
     0.160000    0.160000    0.160000    0.221323    0.221323    0.226916
     0.226942    0.236498    0.236798    0.238414    0.238415    0.245752
     0.245785    0.249555    0.249850    0.249861    0.249915    0.249924
     0.249937    0.249946    0.249957    0.249958    0.249975    0.249983
     0.249985    0.249990    0.249991    0.249992    0.250000    0.250000
     0.325248    0.325291    0.326731    0.326862    0.332502    0.333691
     0.353275    0.355242    0.355328    0.355703    0.355793    0.357373
     0.357492    0.357500    0.357506    0.357522    0.357530    0.357707
     0.357846    0.358055    0.358120    0.359285    0.361514    0.362469
     0.362490    0.363283    0.363732    0.364079    0.364244    0.365395
     0.366391    0.367057    0.367232    0.370590    0.394101    0.409887
     0.431252    0.433389    0.434528    0.435939    0.440716    0.441376
     0.442086    0.443214    0.443457    0.444005    0.444458    0.445851
     0.446074    0.454557    0.456227    0.459311    0.468756    0.469719
     0.472052    0.472132    0.490480    0.491738    0.537208    0.538916

 Minimum search - taking simple RFO step
 Searching for Lamda that Minimizes Along All modes
 Value Taken    Lamda =  -0.05598921
 Calculated Step too Large.  Step scaled by  0.741744
 Step Taken.  Stepsize is  0.300000

                             Maximum     Tolerance    Cnvgd?
         Gradient           0.058877      0.000300      NO
         Displacement       0.111994      0.001200      NO
         Energy change     *********      0.000001      NO


 New Cartesian Coordinates Obtained by Inverse Iteration

 Displacement from previous Coordinates is:  1.205768
 ----------------------------------------------------------------
             Standard Nuclear Orientation (Angstroms)
    I     Atom           X                Y                Z
 ----------------------------------------------------------------
    1      C      11.1225810241     0.5204932707     0.4992939664
    2      C      10.4034925062     1.6878065173     0.6341376583
    3      C       9.0212554684     1.4938230355     0.4909890559
    4      C       8.6850896678     0.1728656883     0.2458425301
    5      S      10.0875959513    -0.7903157427     0.1999540523
    6      C       4.8902089144    -0.7021950477    -0.1668123641
    7      C       5.6145974327    -1.8741666888    -0.2933435357
    8      C       6.9975392449    -1.6796628386    -0.1680046055
    9      C       7.3397929175    -0.3576567135     0.0578030055
   10      S       5.9407236095     0.6113651424     0.1043532908
   11      C      -4.8898185841     0.7040831847    -0.0528961732
   12      C      -5.6003785437     1.8880418560     0.0357005259
   13      C      -6.9862131811     1.6914185563     0.1087191867
   14      C      -7.3459279000     0.3552562196     0.0808185984
   15      S      -5.9572738144    -0.6239539899    -0.0432809380
   16      C     -11.1437924725    -0.5240561561     0.3601252862
   17      C     -10.4446998102    -1.7089980700     0.2888898159
   18      C      -9.0589703138    -1.5164268865     0.1792609119
   19      C      -8.7001728464    -0.1789720157     0.1671109621
   20      S     -10.0867421391     0.8009405903     0.2910563353
   21      C      -1.3365865733    -0.4174335925    -0.2360476023
   22      C      -0.9936220550     0.9465199012    -0.0938078249
   23      C       0.3228491139     1.3957331235    -0.0704550069
   24      C       1.3364567286     0.4268509500    -0.1759613584
   25      C       0.9941008215    -0.9362097160    -0.3302464691
   26      C      -0.3231232891    -1.3843900084    -0.3582150798
   27      C      -2.7411246574    -0.6070147058    -0.2535916866
   28      C      -3.4408989027     0.5725382088    -0.1102317199
   29      S      -2.3905947335     1.9219313965     0.0271180094
   30      C       2.7394300004     0.6110610472    -0.1066299447
   31      C       3.4415718074    -0.5690863389    -0.2278738527
   32      S       2.3936028281    -1.9139079951    -0.4229591618
   33      O       0.5502788605     2.7230195499     0.0717040641
   34      C       1.2148005857     3.4453981688    -0.9198294044
   35      O      -0.5573036466    -2.7104363049    -0.5012422145
   36      C      -1.1525986943    -3.4406046742     0.5278552209
   37      H      12.1948985156     0.4252401468     0.5706340167
   38      H      10.8591306309     2.6492562579     0.8306493163
   39      H       8.2966353074     2.2940243031     0.5675749808
   40      H       5.1625190896    -2.8418378484    -0.4672858837
   41      H       7.7196580525    -2.4826578955    -0.2363662131
   42      H      -5.1360904734     2.8652930962     0.0525801314
   43      H      -7.6980273609     2.5025289022     0.1882704736
   44      H     -12.2143255477    -0.4240012117     0.4494381662
   45      H     -10.9173327030    -2.6817718329     0.3171617231
   46      H      -8.3478296001    -2.3297127803     0.1157654955
   47      H      -3.2299822383    -1.5624745346    -0.3731252460
   48      H       3.2265132208     1.5615180653     0.0512713767
   49      H       1.2701930494     4.4865792016    -0.5809955115
   50      H       0.6574292939     3.4149280503    -1.8708567227
   51      H       2.2361045808     3.0865395873    -1.1043009438
   52      H      -1.2398241442    -4.4776097601     0.1828716069
   53      H      -2.1554590057    -3.0751157754     0.7883335244
   54      H      -0.5285021946    -3.4241927237     1.4368667697
 ----------------------------------------------------------------
 Molecular Point Group                 C1    NOp =  1
 Largest Abelian Subgroup              C1    NOp =  1
 Nuclear Repulsion Energy =        4367.02687825 hartrees
 There are      149 alpha and      149 beta electrons
 Applying Cartesian multipole field
    Component          Value
    ---------          -----
     (2,0,0)        1.00000E-12
     (0,2,0)        2.00000E-11
     (0,0,2)       -3.00000E-11
 Nucleus-field energy     =     0.0000000935 hartrees
 Requested basis set is 6-311G(d,p)
 There are 294 shells and 804 basis functions
 A cutoff of  1.0D-11 yielded  15131 shell pairs
 There are    120032 function pairs (    130392 Cartesian)
 Smallest overlap matrix eigenvalue = 9.79E-05
 Guess MOs from SCF MO coefficient file

 -----------------------------------------------------------------------
  General SCF calculation program by
  Eric Jon Sundstrom, Paul Horn, Yuezhi Mao, Dmitri Zuev, Alec White,
  David Stuck, Shaama M.S., Shane Yost, Joonho Lee, David Small,
  Daniel Levine, Susi Lehtola, Hugh Burton, Evgeny Epifanovsky,
  Bang C. Huynh
 -----------------------------------------------------------------------
 Exchange:     0.2220 Hartree-Fock + 1.0000 wB97X-D + LR-HF
 Correlation:  1.0000 wB97X-D
 Using SG-2 standard quadrature grid
 Dispersion:   Grimme D
 using 48 threads for integral computing
 -------------------------------------------------------
 OpenMP Integral computing Module                
 Release: version 1.0, May 2013, Q-Chem Inc. Pittsburgh 
 -------------------------------------------------------
 using 48 threads for integral computing
 -------------------------------------------------------
 OpenMP Integral computing Module                
 Release: version 1.0, May 2013, Q-Chem Inc. Pittsburgh 
 -------------------------------------------------------
 A restricted SCF calculation will be
 performed using DIIS
 SCF converges when DIIS error is below 1.0e-08
 ---------------------------------------
  Cycle       Energy         DIIS error
 ---------------------------------------
    1   -3617.1428479697      2.92e-04  
    2   -3617.1529132268      7.91e-05  
    3   -3617.1535170443      5.98e-05  
    4   -3617.1538087322      1.23e-05  
    5   -3617.1538285774      6.77e-06  
    6   -3617.1538334605      2.56e-06  
    7   -3617.1538344407      8.51e-07  
    8   -3617.1538345917      4.15e-07  
    9   -3617.1538346204      1.33e-07  
   10   -3617.1538346244      5.08e-08  
   11   -3617.1538346246      2.14e-08  
   12   -3617.1538346238      5.89e-09  Convergence criterion met
 ---------------------------------------
 SCF time:   CPU 1779.83s  wall 50.00s 
 SCF   energy in the final basis set =    -3617.1538346238
 Total energy in the final basis set =    -3617.1538346238
 
 --------------------------------------------------------------
 
                    Orbital Energies (a.u.)
 --------------------------------------------------------------
 
 Alpha MOs
 -- Occupied --
-89.0499 -89.0498 -89.0481 -89.0480 -89.0386 -89.0382 -19.2741 -19.2729
-10.3556 -10.3549 -10.3389 -10.3385 -10.3382 -10.3381 -10.3373 -10.3372
-10.3347 -10.3345 -10.3341 -10.3340 -10.3226 -10.3220 -10.3181 -10.3180
-10.3055 -10.3054 -10.2981 -10.2979 -10.2968 -10.2966 -10.2964 -10.2963
-10.2950 -10.2950 -10.2945 -10.2945  -8.0971  -8.0970  -8.0951  -8.0949
 -8.0858  -8.0854  -6.0457  -6.0457  -6.0436  -6.0435  -6.0419  -6.0419
 -6.0398  -6.0396  -6.0386  -6.0385  -6.0369  -6.0367  -6.0348  -6.0344
 -6.0310  -6.0305  -6.0267  -6.0263  -1.1808  -1.1796  -1.0246  -1.0211
 -1.0134  -1.0039  -0.9954  -0.9891  -0.9291  -0.8942  -0.8877  -0.8758
 -0.8624  -0.8587  -0.8517  -0.8468  -0.8414  -0.8391  -0.8236  -0.8223
 -0.8068  -0.7904  -0.7609  -0.7371  -0.7061  -0.7013  -0.6841  -0.6813
 -0.6757  -0.6592  -0.6528  -0.6494  -0.6321  -0.6316  -0.6285  -0.6262
 -0.6179  -0.6167  -0.6040  -0.5990  -0.5704  -0.5658  -0.5614  -0.5578
 -0.5540  -0.5486  -0.5290  -0.5174  -0.5141  -0.5105  -0.5101  -0.5068
 -0.5064  -0.5034  -0.5020  -0.4920  -0.4912  -0.4903  -0.4858  -0.4845
 -0.4777  -0.4774  -0.4692  -0.4666  -0.4655  -0.4646  -0.4503  -0.4466
 -0.4407  -0.4389  -0.4310  -0.4294  -0.4251  -0.4249  -0.4069  -0.3879
 -0.3795  -0.3750  -0.3552  -0.3547  -0.3467  -0.3454  -0.3391  -0.3376
 -0.3336  -0.3180  -0.2764  -0.2744  -0.2464
 -- Virtual --
 -0.0239  -0.0008   0.0332   0.0554   0.0610   0.0871   0.0909   0.0915
  0.0945   0.0956   0.0994   0.1042   0.1063   0.1149   0.1162   0.1223
  0.1250   0.1266   0.1336   0.1344   0.1411   0.1432   0.1465   0.1473
  0.1515   0.1517   0.1545   0.1597   0.1655   0.1656   0.1772   0.1808
  0.1840   0.1845   0.1874   0.1912   0.2001   0.2029   0.2069   0.2104
  0.2262   0.2281   0.2340   0.2373   0.2384   0.2419   0.2441   0.2477
  0.2502   0.2546   0.2578   0.2629   0.2708   0.2804   0.2810   0.2877
  0.2923   0.2964   0.3030   0.3040   0.3118   0.3126   0.3202   0.3255
  0.3275   0.3337   0.3422   0.3520   0.3554   0.3654   0.3665   0.3681
  0.3725   0.3741   0.3758   0.3864   0.3928   0.3953   0.4012   0.4152
  0.4161   0.4239   0.4245   0.4278   0.4342   0.4415   0.4425   0.4523
  0.4551   0.4613   0.4662   0.4669   0.4724   0.4744   0.4803   0.4812
  0.4831   0.4853   0.4872   0.4883   0.4889   0.4952   0.4955   0.4987
  0.5002   0.5032   0.5059   0.5094   0.5112   0.5137   0.5144   0.5168
  0.5219   0.5236   0.5320   0.5348   0.5357   0.5369   0.5424   0.5455
  0.5497   0.5534   0.5589   0.5631   0.5650   0.5757   0.5773   0.5891
  0.5937   0.6012   0.6034   0.6069   0.6113   0.6117   0.6198   0.6221
  0.6244   0.6263   0.6341   0.6396   0.6413   0.6494   0.6543   0.6570
  0.6588   0.6602   0.6671   0.6783   0.6813   0.6840   0.6871   0.6872
  0.6905   0.6907   0.6949   0.6970   0.7005   0.7049   0.7160   0.7170
  0.7181   0.7238   0.7274   0.7380   0.7460   0.7488   0.7496   0.7549
  0.7561   0.7670   0.7711   0.7790   0.7857   0.7894   0.7910   0.7923
  0.7932   0.7970   0.7985   0.8026   0.8047   0.8108   0.8111   0.8193
  0.8216   0.8260   0.8284   0.8352   0.8376   0.8407   0.8449   0.8481
  0.8545   0.8574   0.8635   0.8689   0.8723   0.8787   0.8796   0.8878
  0.8949   0.8972   0.9001   0.9072   0.9076   0.9130   0.9152   0.9207
  0.9225   0.9315   0.9319   0.9415   0.9425   0.9469   0.9494   0.9571
  0.9626   0.9671   0.9741   0.9820   0.9843   0.9854   0.9948   0.9993
  1.0174   1.0215   1.0251   1.0305   1.0370   1.0403   1.0457   1.0500
  1.0542   1.0550   1.0672   1.0732   1.0759   1.0769   1.0835   1.0862
  1.0927   1.0942   1.1036   1.1074   1.1095   1.1163   1.1205   1.1234
  1.1397   1.1442   1.1500   1.1539   1.1574   1.1574   1.1583   1.1701
  1.1709   1.1717   1.1864   1.1889   1.2011   1.2142   1.2174   1.2308
  1.2448   1.2522   1.2563   1.2623   1.2640   1.2652   1.2784   1.2823
  1.2855   1.2863   1.2935   1.3055   1.3162   1.3412   1.3471   1.3648
  1.3735   1.3845   1.3898   1.4177   1.4191   1.4232   1.4236   1.4497
  1.4553   1.4623   1.4638   1.4768   1.4778   1.4840   1.4877   1.4970
  1.4976   1.5252   1.5273   1.5341   1.5366   1.5602   1.5677   1.5730
  1.5747   1.5756   1.5807   1.5983   1.6013   1.6036   1.6071   1.6140
  1.6177   1.6217   1.6223   1.6253   1.6289   1.6428   1.6489   1.6502
  1.6550   1.6615   1.6660   1.6670   1.6691   1.6711   1.6794   1.6836
  1.6845   1.6865   1.6903   1.6986   1.7011   1.7075   1.7123   1.7212
  1.7254   1.7294   1.7437   1.7479   1.7617   1.7636   1.7700   1.7735
  1.7797   1.7837   1.7868   1.7893   1.7933   1.7948   1.7985   1.8072
  1.8082   1.8123   1.8150   1.8251   1.8362   1.8389   1.8450   1.8488
  1.8523   1.8610   1.8703   1.8726   1.8807   1.8903   1.8938   1.8981
  1.9101   1.9131   1.9176   1.9228   1.9266   1.9293   1.9380   1.9418
  1.9516   1.9520   1.9554   1.9678   1.9727   1.9740   1.9844   1.9890
  1.9898   2.0101   2.0179   2.0202   2.0211   2.0330   2.0396   2.0617
  2.0634   2.0636   2.0663   2.0824   2.0915   2.0926   2.0963   2.1042
  2.1196   2.1232   2.1297   2.1344   2.1375   2.1499   2.1578   2.1652
  2.1695   2.1760   2.1889   2.1930   2.1962   2.1991   2.2009   2.2132
  2.2183   2.2211   2.2300   2.2385   2.2399   2.2465   2.2665   2.2757
  2.2787   2.2813   2.3038   2.3112   2.3122   2.3247   2.3399   2.3412
  2.3616   2.3633   2.3659   2.3718   2.3738   2.3874   2.3924   2.4080
  2.4199   2.4253   2.4450   2.4463   2.4505   2.4925   2.4978   2.5143
  2.5151   2.5298   2.5407   2.5558   2.5591   2.5659   2.5699   2.5710
  2.5830   2.5844   2.5905   2.5972   2.6091   2.6191   2.6220   2.6336
  2.6653   2.6880   2.7026   2.7036   2.7054   2.7060   2.7061   2.7135
  2.7164   2.7244   2.7285   2.7286   2.7296   2.7366   2.7438   2.7444
  2.7503   2.7532   2.7542   2.7632   2.7643   2.7677   2.7861   2.7912
  2.7942   2.8055   2.8095   2.8155   2.8344   2.8422   2.8645   2.8681
  2.8812   2.8828   2.8969   2.9007   2.9075   2.9147   2.9690   2.9752
  2.9763   2.9829   2.9847   3.0085   3.0255   3.0301   3.0375   3.0487
  3.0572   3.0625   3.0880   3.0953   3.1025   3.1354   3.1808   3.1832
  3.1886   3.1916   3.2054   3.2062   3.2110   3.2255   3.2407   3.2521
  3.2566   3.2609   3.2835   3.3011   3.3101   3.3227   3.3275   3.3389
  3.3658   3.3668   3.3776   3.3784   3.3907   3.4072   3.4223   3.4298
  3.4483   3.4496   3.4502   3.4737   3.4748   3.4776   3.4941   3.5092
  3.5226   3.5266   3.5604   3.5605   3.5780   3.6533   3.6696   3.6766
  3.7352   3.7461   3.7845   3.8397   3.8604   3.8608   3.8884   3.9158
  3.9185   3.9720   4.0016   4.0344   4.0471   4.0867   4.1186   4.1187
  4.1611   4.2202   4.2234   4.2914   4.3054   4.3238   4.3713   4.4375
  4.5484   4.6077   4.7428   4.8492   4.9661   5.1426   5.1478   5.3501
  5.3839   5.8826   5.9340   7.9412   7.9426   7.9485   7.9499   7.9628
  8.0084  17.3172  17.3174  17.3357  17.3366  17.3517  17.3577  17.5541
 17.5543  17.5959  17.5979  17.6184  17.6234  17.6653  17.6783  17.6904
 17.6947  17.7184  17.7232  23.4972  23.6142  23.6451  23.7524  23.7771
 23.8539  23.8771  23.9352  23.9390  23.9435  23.9750  23.9784  23.9807
 23.9822  24.0593  24.1385  24.1676  24.1679  24.1700  24.1906  24.1910
 24.2123  24.2472  24.2598  24.2734  24.2750  24.2846  24.2859  50.0814
 50.0842 189.1704 189.1717 189.1784 189.1799 189.1909 189.2401
 --------------------------------------------------------------
 
          Ground-State Mulliken Net Atomic Charges

     Atom                 Charge (a.u.)
  ----------------------------------------
      1 C                    -0.310950
      2 C                    -0.101749
      3 C                    -0.085626
      4 C                    -0.226359
      5 S                     0.330833
      6 C                    -0.246649
      7 C                    -0.072891
      8 C                    -0.080618
      9 C                    -0.216818
     10 S                     0.375412
     11 C                    -0.243827
     12 C                    -0.073991
     13 C                    -0.080556
     14 C                    -0.214483
     15 S                     0.372600
     16 C                    -0.310953
     17 C                    -0.101889
     18 C                    -0.084980
     19 C                    -0.226763
     20 S                     0.330769
     21 C                     0.002268
     22 C                    -0.227342
     23 C                     0.179106
     24 C                     0.001921
     25 C                    -0.224733
     26 C                     0.176822
     27 C                    -0.040594
     28 C                    -0.214466
     29 S                     0.323469
     30 C                    -0.042298
     31 C                    -0.212631
     32 S                     0.321738
     33 O                    -0.366300
     34 C                    -0.136146
     35 O                    -0.367217
     36 C                    -0.136402
     37 H                     0.148582
     38 H                     0.116192
     39 H                     0.123603
     40 H                     0.127057
     41 H                     0.124631
     42 H                     0.127223
     43 H                     0.124729
     44 H                     0.148587
     45 H                     0.116112
     46 H                     0.123301
     47 H                     0.129954
     48 H                     0.130588
     49 H                     0.129756
     50 H                     0.112179
     51 H                     0.103985
     52 H                     0.129562
     53 H                     0.104266
     54 H                     0.111988
  ----------------------------------------
  Sum of atomic charges =     0.000000

 -----------------------------------------------------------------
                    Cartesian Multipole Moments
 -----------------------------------------------------------------
    Charge (ESU x 10^10)
                -0.0000
    Dipole Moment (Debye)
         X       0.0668      Y       0.0214      Z       0.3291
       Tot       0.3365
    Quadrupole Moments (Debye-Ang)
        XX    -194.6988     XY      13.1665     YY    -224.4578
        XZ      -1.0868     YZ      -5.1388     ZZ    -261.8218
    Octopole Moments (Debye-Ang^2)
       XXX      -2.4574    XXY      -2.9628    XYY      -1.1267
       YYY      -0.4833    XXZ      60.2962    XYZ      15.5999
       YYZ      -0.1419    XZZ       4.3295    YZZ       3.7460
       ZZZ      -5.9443
    Hexadecapole Moments (Debye-Ang^3)
      XXXX  -50535.3748   XXXY    1115.2923   XXYY  -10000.9565
      XYYY     191.7367   YYYY   -3414.7686   XXXZ     109.0967
      XXYZ     154.7258   XYYZ     -12.4188   YYYZ     -58.3056
      XXZZ  -11188.3880   XYZZ      11.9318   YYZZ    -733.1362
      XZZZ      -0.5778   YZZZ     -15.9752   ZZZZ    -486.9163
 -----------------------------------------------------------------
 Calculating analytic gradient of the SCF energy
 Gradient of SCF Energy
            1           2           3           4           5           6
    1   0.0033455  -0.0130994   0.0068771   0.0145970  -0.0062973   0.0070997
    2  -0.0232720   0.0059138   0.0083800  -0.0249393   0.0207807   0.0283487
    3  -0.0035791  -0.0001173   0.0020908  -0.0028762   0.0030218   0.0045563
            7           8           9          10          11          12
    1   0.0072960  -0.0052524  -0.0147110   0.0031907  -0.0072315  -0.0072652
    2  -0.0061480  -0.0078445   0.0253499  -0.0229570  -0.0284663   0.0060593
    3  -0.0002164  -0.0018141   0.0027824  -0.0032481  -0.0014150   0.0009998
           13          14          15          16          17          18
    1   0.0054776   0.0141527  -0.0027668  -0.0029632   0.0129479  -0.0070543
    2   0.0079304  -0.0254333   0.0228990   0.0236859  -0.0059385  -0.0084862
    3  -0.0001358  -0.0018124   0.0006990   0.0005173  -0.0011237   0.0003078
           19          20          21          22          23          24
    1  -0.0142167   0.0059188  -0.0114452  -0.0158560   0.0020469   0.0115214
    2   0.0253077  -0.0211643   0.0107923   0.0083131   0.0094330  -0.0108763
    3   0.0015186  -0.0005440   0.0003476   0.0021321   0.0089610  -0.0001140
           25          26          27          28          29          30
    1   0.0159575  -0.0028268   0.0165454   0.0041914   0.0060452  -0.0167977
    2  -0.0082477  -0.0096547  -0.0140110   0.0357437  -0.0286497   0.0140104
    3  -0.0015378  -0.0090556  -0.0015777   0.0038134  -0.0035670   0.0013579
           31          32          33          34          35          36
    1  -0.0040141  -0.0058345   0.0049949  -0.0053067  -0.0038646   0.0044130
    2  -0.0355085   0.0282311  -0.0019267  -0.0062371   0.0022776   0.0062333
    3  -0.0053257   0.0031245  -0.0210301   0.0174829   0.0214666  -0.0176311
           37          38          39          40          41          42
    1   0.0005376  -0.0006058   0.0009114   0.0011207  -0.0007697  -0.0012086
    2   0.0047355   0.0006084   0.0009131  -0.0006093  -0.0008069   0.0006934
    3   0.0008233   0.0001387   0.0000759   0.0000096  -0.0000212   0.0002466
           43          44          45          46          47          48
    1   0.0008247  -0.0006123   0.0006043  -0.0009153  -0.0004600   0.0004570
    2   0.0008290  -0.0047486  -0.0006477  -0.0008595   0.0007614  -0.0008866
    3  -0.0001334   0.0000318   0.0000555   0.0002314   0.0008053  -0.0005456
           49          50          51          52          53          54
    1   0.0011279  -0.0021618   0.0023408  -0.0010615  -0.0023911   0.0024464
    2   0.0047674   0.0003101   0.0000376  -0.0047699   0.0001198  -0.0003761
    3  -0.0002023  -0.0029953  -0.0005712   0.0001855   0.0006622   0.0027440
 Max gradient component =       3.574E-02
 RMS gradient           =       1.053E-02
 Gradient time:  CPU 379.08 s  wall 13.46 s
 Geometry Optimization Parameters
   NAtoms,    NIC,     NZ,  NCons,   NDum,   NFix, NCnnct, MaxDiis
       54     404       0       0       0       0       0       0

 Cartesian Hessian Update
 Hessian updated using BFGS update


** GEOMETRY OPTIMIZATION IN DELOCALIZED INTERNAL COORDINATES **
   Searching for a Minimum

   Optimization Cycle:   2

                       Coordinates (Angstroms)
     ATOM                X               Y               Z
      1  C        11.1225810241    0.5204932707    0.4992939664
      2  C        10.4034925062    1.6878065173    0.6341376583
      3  C         9.0212554684    1.4938230355    0.4909890559
      4  C         8.6850896678    0.1728656883    0.2458425301
      5  S        10.0875959513   -0.7903157427    0.1999540523
      6  C         4.8902089144   -0.7021950477   -0.1668123641
      7  C         5.6145974327   -1.8741666888   -0.2933435357
      8  C         6.9975392449   -1.6796628386   -0.1680046055
      9  C         7.3397929175   -0.3576567135    0.0578030055
     10  S         5.9407236095    0.6113651424    0.1043532908
     11  C        -4.8898185841    0.7040831847   -0.0528961732
     12  C        -5.6003785437    1.8880418560    0.0357005259
     13  C        -6.9862131811    1.6914185563    0.1087191867
     14  C        -7.3459279000    0.3552562196    0.0808185984
     15  S        -5.9572738144   -0.6239539899   -0.0432809380
     16  C       -11.1437924725   -0.5240561561    0.3601252862
     17  C       -10.4446998102   -1.7089980700    0.2888898159
     18  C        -9.0589703138   -1.5164268865    0.1792609119
     19  C        -8.7001728464   -0.1789720157    0.1671109621
     20  S       -10.0867421391    0.8009405903    0.2910563353
     21  C        -1.3365865733   -0.4174335925   -0.2360476023
     22  C        -0.9936220550    0.9465199012   -0.0938078249
     23  C         0.3228491139    1.3957331235   -0.0704550069
     24  C         1.3364567286    0.4268509500   -0.1759613584
     25  C         0.9941008215   -0.9362097160   -0.3302464691
     26  C        -0.3231232891   -1.3843900084   -0.3582150798
     27  C        -2.7411246574   -0.6070147058   -0.2535916866
     28  C        -3.4408989027    0.5725382088   -0.1102317199
     29  S        -2.3905947335    1.9219313965    0.0271180094
     30  C         2.7394300004    0.6110610472   -0.1066299447
     31  C         3.4415718074   -0.5690863389   -0.2278738527
     32  S         2.3936028281   -1.9139079951   -0.4229591618
     33  O         0.5502788605    2.7230195499    0.0717040641
     34  C         1.2148005857    3.4453981688   -0.9198294044
     35  O        -0.5573036466   -2.7104363049   -0.5012422145
     36  C        -1.1525986943   -3.4406046742    0.5278552209
     37  H        12.1948985156    0.4252401468    0.5706340167
     38  H        10.8591306309    2.6492562579    0.8306493163
     39  H         8.2966353074    2.2940243031    0.5675749808
     40  H         5.1625190896   -2.8418378484   -0.4672858837
     41  H         7.7196580525   -2.4826578955   -0.2363662131
     42  H        -5.1360904734    2.8652930962    0.0525801314
     43  H        -7.6980273609    2.5025289022    0.1882704736
     44  H       -12.2143255477   -0.4240012117    0.4494381662
     45  H       -10.9173327030   -2.6817718329    0.3171617231
     46  H        -8.3478296001   -2.3297127803    0.1157654955
     47  H        -3.2299822383   -1.5624745346   -0.3731252460
     48  H         3.2265132208    1.5615180653    0.0512713767
     49  H         1.2701930494    4.4865792016   -0.5809955115
     50  H         0.6574292939    3.4149280503   -1.8708567227
     51  H         2.2361045808    3.0865395873   -1.1043009438
     52  H        -1.2398241442   -4.4776097601    0.1828716069
     53  H        -2.1554590057   -3.0751157754    0.7883335244
     54  H        -0.5285021946   -3.4241927237    1.4368667697
   Point Group: c1    Number of degrees of freedom:   156


   Energy is  -3617.153834624

 Hessian updated using BFGS update

152 Hessian modes will be used to form the next step
  Hessian Eigenvalues:
     0.012907    0.012917    0.012959    0.012969    0.017017    0.017062
     0.017182    0.017204    0.017404    0.017429    0.017673    0.017711
     0.018252    0.018343    0.018586    0.018668    0.018735    0.018811
     0.018857    0.018866    0.020754    0.020886    0.021009    0.021036
     0.021305    0.021350    0.021381    0.021471    0.021523    0.021560
     0.021739    0.021971    0.022069    0.022284    0.022556    0.022584
     0.022705    0.022831    0.022848    0.022867    0.022997    0.023024
     0.023050    0.023182    0.023310    0.023389    0.023408    0.101742
     0.102268    0.105671    0.105721    0.153040    0.159915    0.159977
     0.159993    0.159994    0.159996    0.159997    0.159999    0.159999
     0.159999    0.160000    0.160000    0.160000    0.162105    0.202273
     0.221323    0.222514    0.226924    0.226948    0.236789    0.236946
     0.238415    0.241550    0.245768    0.248249    0.249594    0.249854
     0.249875    0.249928    0.249934    0.249942    0.249952    0.249957
     0.249964    0.249981    0.249986    0.249987    0.249992    0.249993
     0.250000    0.286963    0.313144    0.325269    0.325893    0.326796
     0.329465    0.332741    0.333941    0.353288    0.355283    0.355567
     0.355754    0.357373    0.357491    0.357499    0.357505    0.357522
     0.357530    0.357704    0.357841    0.357974    0.358097    0.360064
     0.361511    0.362432    0.362700    0.363389    0.363485    0.363923
     0.364325    0.365308    0.366410    0.367170    0.368353    0.373941
     0.394099    0.409885    0.421057    0.433526    0.434414    0.436395
     0.440932    0.441748    0.443042    0.443193    0.444001    0.444442
     0.445531    0.445991    0.448229    0.453112    0.456580    0.462882
     0.469129    0.470541    0.472091    0.480188    0.489789    0.491533
     0.538026    0.546560

 Minimum search - taking simple RFO step
 Searching for Lamda that Minimizes Along All modes
 Value Taken    Lamda =  -0.02438831
 Calculated Step too Large.  Step scaled by  0.842636
 Step Taken.  Stepsize is  0.300000

                             Maximum     Tolerance    Cnvgd?
         Gradient           0.036095      0.000300      NO
         Displacement       0.121856      0.001200      NO
         Energy change     -0.030379      0.000001      NO


 New Cartesian Coordinates Obtained by Inverse Iteration

 Displacement from previous Coordinates is:  1.387820
 ----------------------------------------------------------------
             Standard Nuclear Orientation (Angstroms)
    I     Atom           X                Y                Z
 ----------------------------------------------------------------
    1      C      11.1439626231     0.4966264405     0.3852701339
    2      C      10.4447258497     1.6541126002     0.5558372789
    3      C       9.0455169182     1.4662277111     0.4462278941
    4      C       8.6937691058     0.1625713000     0.1920938159
    5      S      10.1005652249    -0.8291216247     0.0899405495
    6      C       4.8876273901    -0.7098009096    -0.1525506493
    7      C       5.6007440146    -1.8718914653    -0.3087731208
    8      C       6.9973550407    -1.6884182499    -0.2089189279
    9      C       7.3572680877    -0.3846777397     0.0264539881
   10      S       5.9566856489     0.6176263249     0.1214949356
   11      C      -4.8941899834     0.7331655257     0.0044123770
   12      C      -5.6106167050     1.9006122824     0.0921393572
   13      C      -7.0075267031     1.6971322269     0.1305165572
   14      C      -7.3641270845     0.3724481932     0.0727778929
   15      S      -5.9597116597    -0.6241101176    -0.0294047322
   16      C     -11.1496378287    -0.5752517541     0.2012358875
   17      C     -10.4461974058    -1.7407037406     0.1333018827
   18      C      -9.0470175136    -1.5295668679     0.0777714469
   19      C      -8.6996675343    -0.2005424780     0.1041015055
   20      S     -10.1108889588     0.7863638826     0.1973545603
   21      C      -1.3389238148    -0.4096227718    -0.1594670664
   22      C      -0.9933839056     0.9554321839    -0.0034483432
   23      C       0.3167424325     1.4069522802     0.0137154304
   24      C       1.3344288788     0.4544090910    -0.1104682626
   25      C       0.9875828573    -0.9097643730    -0.2749250114
   26      C      -0.3222477027    -1.3603727383    -0.2956912034
   27      C      -2.7597785896    -0.5871491248    -0.1874164012
   28      C      -3.4522548369     0.5739940492    -0.0347532698
   29      S      -2.4043264051     1.9575087687     0.1373404268
   30      C       2.7553754123     0.6248678694    -0.0468916890
   31      C       3.4468957551    -0.5388768856    -0.1859902228
   32      S       2.3977209913    -1.9163807769    -0.3937913578
   33      O       0.5396528826     2.7379794135     0.1769144708
   34      C       1.1430160672     3.4179538188    -0.9036226578
   35      O      -0.5536754307    -2.6902548007    -0.4617900429
   36      C      -1.0942371553    -3.3759300259     0.6482365035
   37      H      12.2144147016     0.3660756769     0.4205964045
   38      H      10.9164812928     2.6067207347     0.7537424667
   39      H       8.3214101123     2.2630509057     0.5541305802
   40      H       5.1319767859    -2.8301206423    -0.4896247415
   41      H       7.7160193040    -2.4912850550    -0.3061597871
   42      H      -5.1435733827     2.8757226530     0.1294181371
   43      H      -7.7286639642     2.5004617080     0.2026741903
   44      H     -12.2209664280    -0.4580566310     0.2532209012
   45      H     -10.9155723615    -2.7146573846     0.1242235951
   46      H      -8.3197947113    -2.3289083883     0.0214969306
   47      H      -3.2468409259    -1.5410352247    -0.3326398971
   48      H       3.2436682277     1.5741620443     0.1212499361
   49      H       1.2357124775     4.4593887592    -0.6014628546
   50      H       0.5173432153     3.3587933030    -1.8013187072
   51      H       2.1360701137     3.0282216587    -1.1457718862
   52      H      -1.2151465373    -4.4139186954     0.3441654771
   53      H      -2.0669503104    -2.9783094314     0.9536420857
   54      H      -0.4149797741    -3.3296613386     1.5069738266
 ----------------------------------------------------------------
 Molecular Point Group                 C1    NOp =  1
 Largest Abelian Subgroup              C1    NOp =  1
 Nuclear Repulsion Energy =        4360.74877553 hartrees
 There are      149 alpha and      149 beta electrons
 Applying Cartesian multipole field
    Component          Value
    ---------          -----
     (2,0,0)        1.00000E-12
     (0,2,0)        2.00000E-11
     (0,0,2)       -3.00000E-11
 Nucleus-field energy     =     0.0000000939 hartrees
 Requested basis set is 6-311G(d,p)
 There are 294 shells and 804 basis functions
 A cutoff of  1.0D-11 yielded  15142 shell pairs
 There are    120245 function pairs (    130638 Cartesian)
 Smallest overlap matrix eigenvalue = 9.58E-05
 Guess MOs from SCF MO coefficient file

 -----------------------------------------------------------------------
  General SCF calculation program by
  Eric Jon Sundstrom, Paul Horn, Yuezhi Mao, Dmitri Zuev, Alec White,
  David Stuck, Shaama M.S., Shane Yost, Joonho Lee, David Small,
  Daniel Levine, Susi Lehtola, Hugh Burton, Evgeny Epifanovsky,
  Bang C. Huynh
 -----------------------------------------------------------------------
 Exchange:     0.2220 Hartree-Fock + 1.0000 wB97X-D + LR-HF
 Correlation:  1.0000 wB97X-D
 Using SG-2 standard quadrature grid
 Dispersion:   Grimme D
 using 48 threads for integral computing
 -------------------------------------------------------
 OpenMP Integral computing Module                
 Release: version 1.0, May 2013, Q-Chem Inc. Pittsburgh 
 -------------------------------------------------------
 using 48 threads for integral computing
 -------------------------------------------------------
 OpenMP Integral computing Module                
 Release: version 1.0, May 2013, Q-Chem Inc. Pittsburgh 
 -------------------------------------------------------
 A restricted SCF calculation will be
 performed using DIIS
 SCF converges when DIIS error is below 1.0e-08
 ---------------------------------------
  Cycle       Energy         DIIS error
 ---------------------------------------
    1   -3617.1487622308      3.60e-04  
    2   -3617.1656042726      8.54e-05  
    3   -3617.1667124758      5.95e-05  
    4   -3617.1669732138      1.49e-05  
    5   -3617.1670030877      6.54e-06  
    6   -3617.1670079831      2.46e-06  
    7   -3617.1670090113      8.73e-07  
    8   -3617.1670091861      4.11e-07  
    9   -3617.1670092143      1.70e-07  
   10   -3617.1670092196      6.54e-08  
   11   -3617.1670092206      2.58e-08  
   12   -3617.1670092200      6.76e-09  Convergence criterion met
 ---------------------------------------
 SCF time:   CPU 1783.67s  wall 50.00s 
 SCF   energy in the final basis set =    -3617.1670092200
 Total energy in the final basis set =    -3617.1670092200
 
 --------------------------------------------------------------
 
                    Orbital Energies (a.u.)
 --------------------------------------------------------------
 
 Alpha MOs
 -- Occupied --
-89.0482 -89.0481 -89.0467 -89.0466 -89.0392 -89.0389 -19.2741 -19.2733
-10.3545 -10.3537 -10.3394 -10.3391 -10.3384 -10.3383 -10.3368 -10.3364
-10.3357 -10.3355 -10.3350 -10.3349 -10.3250 -10.3246 -10.3191 -10.3190
-10.3085 -10.3080 -10.2998 -10.2997 -10.2989 -10.2984 -10.2984 -10.2983
-10.2968 -10.2967 -10.2959 -10.2959  -8.0949  -8.0947  -8.0932  -8.0931
 -8.0854  -8.0852  -6.0436  -6.0435  -6.0418  -6.0417  -6.0399  -6.0397
 -6.0381  -6.0380  -6.0362  -6.0361  -6.0349  -6.0348  -6.0345  -6.0343
 -6.0308  -6.0305  -6.0261  -6.0259  -1.1771  -1.1758  -1.0212  -1.0179
 -1.0101  -1.0002  -0.9918  -0.9840  -0.9295  -0.8925  -0.8878  -0.8764
 -0.8608  -0.8578  -0.8497  -0.8458  -0.8390  -0.8372  -0.8219  -0.8200
 -0.8077  -0.7934  -0.7647  -0.7384  -0.7080  -0.7037  -0.6856  -0.6815
 -0.6764  -0.6594  -0.6541  -0.6487  -0.6321  -0.6309  -0.6279  -0.6263
 -0.6152  -0.6134  -0.6023  -0.5959  -0.5696  -0.5655  -0.5606  -0.5596
 -0.5517  -0.5464  -0.5286  -0.5160  -0.5126  -0.5114  -0.5103  -0.5071
 -0.5063  -0.5057  -0.4998  -0.4932  -0.4920  -0.4896  -0.4861  -0.4842
 -0.4782  -0.4759  -0.4722  -0.4638  -0.4637  -0.4616  -0.4510  -0.4468
 -0.4443  -0.4386  -0.4308  -0.4288  -0.4238  -0.4236  -0.4097  -0.3884
 -0.3808  -0.3755  -0.3565  -0.3556  -0.3466  -0.3448  -0.3389  -0.3368
 -0.3338  -0.3190  -0.2793  -0.2778  -0.2520
 -- Virtual --
 -0.0242  -0.0020   0.0318   0.0543   0.0605   0.0851   0.0861   0.0872
  0.0882   0.0901   0.0936   0.0981   0.1057   0.1145   0.1162   0.1214
  0.1248   0.1254   0.1325   0.1350   0.1394   0.1442   0.1464   0.1470
  0.1521   0.1545   0.1555   0.1608   0.1653   0.1655   0.1762   0.1801
  0.1840   0.1861   0.1883   0.1896   0.1989   0.1997   0.2092   0.2132
  0.2261   0.2273   0.2338   0.2366   0.2378   0.2412   0.2443   0.2484
  0.2513   0.2550   0.2589   0.2649   0.2689   0.2798   0.2808   0.2867
  0.2933   0.2958   0.2995   0.3012   0.3101   0.3124   0.3179   0.3251
  0.3256   0.3319   0.3394   0.3488   0.3516   0.3594   0.3644   0.3665
  0.3696   0.3713   0.3735   0.3925   0.3945   0.3966   0.4013   0.4155
  0.4157   0.4203   0.4206   0.4243   0.4337   0.4405   0.4417   0.4497
  0.4546   0.4589   0.4667   0.4670   0.4736   0.4747   0.4783   0.4819
  0.4830   0.4842   0.4846   0.4873   0.4900   0.4928   0.4942   0.4972
  0.5019   0.5041   0.5048   0.5092   0.5096   0.5129   0.5173   0.5173
  0.5203   0.5222   0.5248   0.5286   0.5348   0.5395   0.5404   0.5438
  0.5457   0.5538   0.5575   0.5626   0.5648   0.5739   0.5772   0.5886
  0.5935   0.6025   0.6050   0.6056   0.6137   0.6138   0.6213   0.6240
  0.6267   0.6285   0.6348   0.6427   0.6453   0.6489   0.6545   0.6567
  0.6590   0.6596   0.6668   0.6802   0.6814   0.6857   0.6885   0.6903
  0.6919   0.6927   0.6944   0.6964   0.6990   0.7042   0.7151   0.7167
  0.7188   0.7248   0.7273   0.7368   0.7455   0.7471   0.7495   0.7547
  0.7581   0.7634   0.7740   0.7774   0.7832   0.7864   0.7887   0.7934
  0.7954   0.7976   0.7982   0.8075   0.8104   0.8137   0.8158   0.8195
  0.8246   0.8283   0.8297   0.8370   0.8409   0.8415   0.8480   0.8485
  0.8602   0.8609   0.8673   0.8695   0.8721   0.8816   0.8828   0.8911
  0.8973   0.8982   0.9008   0.9069   0.9086   0.9141   0.9162   0.9224
  0.9236   0.9299   0.9312   0.9398   0.9422   0.9478   0.9507   0.9550
  0.9647   0.9667   0.9732   0.9770   0.9802   0.9841   0.9886   0.9994
  1.0143   1.0197   1.0225   1.0292   1.0325   1.0389   1.0415   1.0445
  1.0507   1.0510   1.0576   1.0701   1.0720   1.0743   1.0788   1.0847
  1.0891   1.0905   1.1016   1.1049   1.1092   1.1147   1.1168   1.1200
  1.1405   1.1432   1.1501   1.1512   1.1534   1.1539   1.1568   1.1703
  1.1706   1.1726   1.1888   1.1892   1.1982   1.2062   1.2107   1.2320
  1.2452   1.2499   1.2522   1.2654   1.2663   1.2692   1.2768   1.2814
  1.2848   1.2870   1.2913   1.2985   1.3079   1.3420   1.3483   1.3623
  1.3661   1.3782   1.3824   1.4168   1.4187   1.4222   1.4225   1.4445
  1.4555   1.4595   1.4605   1.4737   1.4749   1.4850   1.4861   1.5016
  1.5034   1.5281   1.5290   1.5369   1.5396   1.5506   1.5657   1.5685
  1.5741   1.5747   1.5758   1.5895   1.5952   1.5998   1.6039   1.6082
  1.6118   1.6144   1.6188   1.6238   1.6270   1.6384   1.6415   1.6441
  1.6501   1.6584   1.6611   1.6647   1.6665   1.6689   1.6758   1.6772
  1.6843   1.6846   1.6923   1.6953   1.6977   1.7060   1.7109   1.7191
  1.7230   1.7261   1.7433   1.7487   1.7606   1.7629   1.7684   1.7725
  1.7802   1.7811   1.7872   1.7926   1.7942   1.7961   1.7987   1.8031
  1.8125   1.8136   1.8158   1.8309   1.8382   1.8398   1.8448   1.8490
  1.8501   1.8559   1.8653   1.8670   1.8828   1.8896   1.8942   1.8972
  1.9113   1.9134   1.9167   1.9199   1.9242   1.9275   1.9391   1.9423
  1.9462   1.9502   1.9536   1.9626   1.9679   1.9772   1.9844   1.9881
  1.9908   2.0124   2.0168   2.0213   2.0218   2.0340   2.0399   2.0622
  2.0642   2.0689   2.0693   2.0859   2.0915   2.0940   2.0967   2.1066
  2.1144   2.1233   2.1258   2.1339   2.1371   2.1497   2.1582   2.1639
  2.1697   2.1781   2.1828   2.1955   2.2001   2.2021   2.2025   2.2159
  2.2227   2.2246   2.2280   2.2399   2.2407   2.2447   2.2705   2.2750
  2.2772   2.2832   2.3056   2.3123   2.3138   2.3288   2.3387   2.3488
  2.3692   2.3702   2.3718   2.3786   2.3798   2.3979   2.3996   2.4143
  2.4316   2.4344   2.4485   2.4489   2.4554   2.5000   2.5022   2.5111
  2.5126   2.5323   2.5438   2.5645   2.5691   2.5724   2.5772   2.5814
  2.5847   2.5902   2.6004   2.6077   2.6096   2.6176   2.6208   2.6347
  2.6668   2.6850   2.6985   2.7025   2.7054   2.7059   2.7062   2.7127
  2.7154   2.7229   2.7243   2.7283   2.7294   2.7336   2.7410   2.7415
  2.7497   2.7551   2.7553   2.7645   2.7655   2.7687   2.7876   2.7937
  2.7953   2.8072   2.8127   2.8151   2.8371   2.8445   2.8642   2.8688
  2.8852   2.8866   2.8989   2.9006   2.9065   2.9188   2.9643   2.9712
  2.9747   2.9765   2.9844   3.0082   3.0110   3.0259   3.0320   3.0380
  3.0574   3.0619   3.0885   3.0948   3.0991   3.1262   3.1734   3.1767
  3.1833   3.1887   3.1990   3.2080   3.2121   3.2280   3.2351   3.2522
  3.2579   3.2630   3.2923   3.3099   3.3100   3.3292   3.3313   3.3384
  3.3625   3.3677   3.3757   3.3803   3.3889   3.4045   3.4170   3.4232
  3.4274   3.4314   3.4385   3.4602   3.4604   3.4717   3.4850   3.5079
  3.5112   3.5217   3.5617   3.5618   3.5764   3.6530   3.6655   3.6738
  3.7278   3.7367   3.7994   3.8531   3.8630   3.8658   3.8783   3.9060
  3.9211   3.9621   3.9904   4.0174   4.0546   4.0860   4.1156   4.1157
  4.1318   4.2185   4.2203   4.2702   4.2962   4.3130   4.3635   4.4343
  4.5440   4.6036   4.7394   4.8415   4.9738   5.1385   5.1414   5.3633
  5.3986   5.8429   5.8956   7.9214   7.9238   7.9288   7.9306   7.9348
  7.9791  17.3195  17.3198  17.3371  17.3379  17.3521  17.3576  17.5444
 17.5445  17.5894  17.5914  17.6088  17.6142  17.6502  17.6619  17.6794
 17.6825  17.6996  17.7069  23.4887  23.6085  23.6384  23.7465  23.7695
 23.8508  23.8678  23.9284  23.9336  23.9362  23.9751  23.9776  23.9923
 23.9928  24.0627  24.1417  24.1903  24.2059  24.2064  24.2298  24.2300
 24.2394  24.2751  24.2764  24.2899  24.2940  24.3015  24.3023  50.0812
 50.0845 189.1477 189.1504 189.1561 189.1581 189.1601 189.2070
 --------------------------------------------------------------
 
          Ground-State Mulliken Net Atomic Charges

     Atom                 Charge (a.u.)
  ----------------------------------------
      1 C                    -0.302240
      2 C                    -0.099596
      3 C                    -0.082089
      4 C                    -0.223075
      5 S                     0.311360
      6 C                    -0.239904
      7 C                    -0.071524
      8 C                    -0.077196
      9 C                    -0.212031
     10 S                     0.354782
     11 C                    -0.240029
     12 C                    -0.070661
     13 C                    -0.077509
     14 C                    -0.211113
     15 S                     0.353662
     16 C                    -0.302103
     17 C                    -0.099600
     18 C                    -0.082423
     19 C                    -0.222479
     20 S                     0.311077
     21 C                     0.018704
     22 C                    -0.226108
     23 C                     0.165794
     24 C                     0.018248
     25 C                    -0.224334
     26 C                     0.162617
     27 C                    -0.040713
     28 C                    -0.207407
     29 S                     0.306288
     30 C                    -0.040018
     31 C                    -0.208324
     32 S                     0.305722
     33 O                    -0.369271
     34 C                    -0.141104
     35 O                    -0.369987
     36 C                    -0.141817
     37 H                     0.148777
     38 H                     0.117601
     39 H                     0.125542
     40 H                     0.128924
     41 H                     0.126298
     42 H                     0.128709
     43 H                     0.126334
     44 H                     0.148782
     45 H                     0.117530
     46 H                     0.125418
     47 H                     0.133057
     48 H                     0.132968
     49 H                     0.131061
     50 H                     0.116300
     51 H                     0.109602
     52 H                     0.130879
     53 H                     0.110182
     54 H                     0.116439
  ----------------------------------------
  Sum of atomic charges =     0.000000

 -----------------------------------------------------------------
                    Cartesian Multipole Moments
 -----------------------------------------------------------------
    Charge (ESU x 10^10)
                -0.0000
    Dipole Moment (Debye)
         X       0.0744      Y       0.0031      Z       0.2161
       Tot       0.2286
    Quadrupole Moments (Debye-Ang)
        XX    -193.4077     XY      13.3764     YY    -225.1147
        XZ      -0.7208     YZ      -5.3504     ZZ    -262.1432
    Octopole Moments (Debye-Ang^2)
       XXX       1.2885    XXY      -4.8056    XYY      -2.1575
       YYY      -0.7017    XXZ      40.6299    XYZ      14.8989
       YYZ      -1.2577    XZZ       4.6432    YZZ       2.7541
       ZZZ      -7.3866
    Hexadecapole Moments (Debye-Ang^3)
      XXXX  -50404.8074   XXXY    1248.9465   XXYY  -10014.6976
      XYYY     217.6961   YYYY   -3413.1202   XXXZ     184.9145
      XXYZ     185.2216   XYYZ     -11.5680   YYYZ     -74.4399
      XXZZ  -11249.0976   XYZZ      23.2489   YYZZ    -726.6468
      XZZZ      -0.4269   YZZZ     -30.8913   ZZZZ    -462.8136
[...]
  0.0785   0.0822   0.0830   0.0851   0.0888   0.0904   0.0938   0.0957
  0.0970   0.0982   0.0991   0.1028   0.1053   0.1107   0.1119   0.1141
  0.1158   0.1186   0.1221   0.1224   0.1262   0.1283   0.1298   0.1321
  0.1362   0.1381   0.1405   0.1416   0.1428   0.1456   0.1488   0.1490
  0.1520   0.1546   0.1553   0.1597   0.1618   0.1641   0.1656   0.1665
  0.1694   0.1721   0.1739   0.1750   0.1777   0.1794   0.1825   0.1848
  0.1858   0.1882   0.1895   0.1919   0.1945   0.1976   0.1985   0.2004
  0.2011   0.2041   0.2059   0.2086   0.2092   0.2103   0.2120   0.2142
  0.2164   0.2189   0.2192   0.2213   0.2221   0.2246   0.2264   0.2279
  0.2296   0.2316   0.2327   0.2347   0.2354   0.2383   0.2394   0.2411
  0.2436   0.2458   0.2463   0.2480   0.2504   0.2523   0.2532   0.2550
  0.2556   0.2576   0.2585   0.2598   0.2626   0.2653   0.2668   0.2683
  0.2695   0.2726   0.2738   0.2745   0.2760   0.2788   0.2813   0.2831
  0.2839   0.2865   0.2887   0.2916   0.2925   0.2928   0.2947   0.2958
  0.2970   0.3010   0.3024   0.3036   0.3039   0.3054   0.3073   0.3083
  0.3099   0.3112   0.3128   0.3140   0.3167   0.3181   0.3192   0.3202
  0.3211   0.3235   0.3242   0.3259   0.3268   0.3298   0.3304   0.3312
  0.3323   0.3344   0.3350   0.3357   0.3375   0.3385   0.3396   0.3409
  0.3422   0.3460   0.3467   0.3475   0.3501   0.3513   0.3526   0.3537
  0.3551   0.3579   0.3594   0.3613   0.3628   0.3630   0.3642   0.3676
  0.3697   0.3702   0.3720   0.3732   0.3748   0.3756   0.3783   0.3810
  0.3822   0.3834   0.3861   0.3886   0.3890   0.3918   0.3925   0.3926
  0.3960   0.3980   0.3986   0.4009   0.4024   0.4036   0.4050   0.4058
  0.4086   0.4095   0.4097   0.4108   0.4145   0.4163   0.4170   0.4191
  0.4213   0.4240   0.4249   0.4267   0.4277   0.4299   0.4312   0.4333
  0.4358   0.4376   0.4382   0.4391   0.4414   0.4418   0.4440   0.4448
  0.4470   0.4491   0.4498   0.4519   0.4547   0.4550   0.4571   0.4589
  0.4611   0.4613   0.4635   0.4648   0.4668   0.4704   0.4723   0.4728
  0.4748   0.4753   0.4779   0.4786   0.4796   0.4819   0.4839   0.4858
  0.4872   0.4904   0.4928   0.4946   0.4966   0.4973   0.4991   0.4999
  0.5005   0.5042   0.5047   0.5079   0.5089   0.5120   0.5131   0.5145
  0.5161   0.5198   0.5218   0.5235   0.5255   0.5260   0.5283   0.5309
  0.5328   0.5334   0.5354   0.5374   0.5398   0.5416   0.5446   0.5495
  0.5523   0.5537   0.5563   0.5575   0.5579   0.5624   0.5636   0.5655
  0.5664   0.5702   0.5721   0.5771   0.5784   0.5792   0.5826   0.5851
  0.5858   0.5871   0.5907   0.5938   0.5966   0.5972   0.5976   0.5999
  0.6020   0.6054   0.6098   0.6104   0.6123   0.6143   0.6151   0.6195
  0.6220   0.6226   0.6249   0.6276   0.6301   0.6320   0.6331   0.6357
  0.6378   0.6392   0.6403   0.6421   0.6434   0.6512   0.6522   0.6526
  0.6546   0.6557   0.6590   0.6629   0.6636   0.6654   0.6694   0.6699
  0.6714   0.6726   0.6753   0.6777   0.6807   0.6827   0.6843   0.6858
  0.6867   0.6878   0.6891   0.6903   0.6933   0.6943   0.6951   0.6961
  0.6985   0.7019   0.7041   0.7058   0.7070   0.7085   0.7109   0.7140
  0.7150   0.7168   0.7190   0.7219   0.7250   0.7262   0.7267   0.7293
  0.7296   0.7315   0.7335   0.7342   0.7369   0.7375   0.7405   0.7422
  0.7438   0.7445   0.7475   0.7491   0.7513   0.7519   0.7533   0.7535
  0.7564   0.7588   0.7598   0.7625   0.7642   0.7654   0.7665   0.7683
  0.7710   0.7725   0.7744   0.7756   0.7772   0.7792   0.7808   0.7829
  0.7841   0.7845   0.7873   0.7900   0.7906   0.7939   0.7962   0.7973
  0.7981   0.7996   0.8026   0.8030   0.8054   0.8071   0.8086   0.8109
  0.8128   0.8140   0.8145   0.8187   0.8195   0.8211   0.8234   0.8238
  0.8256   0.8294   0.8313   0.8326   0.8336   0.8377   0.8392   0.8413
  0.8442   0.8455   0.8472   0.8483   0.8497   0.8514   0.8531   0.8558
  0.8582   0.8594   0.8620   0.8631   0.8656   0.8678   0.8710   0.8720
  0.8734   0.8772   0.8783   0.8816   0.8833   0.8851   0.8886   0.8925
  0.8931   0.8941   0.8969   0.8995   0.9037   0.9048   0.9079   0.9113
  0.9131   0.9139   0.9161   0.9181   0.9224   0.9254   0.9269   0.9293
  0.9316   0.9345   0.9377   0.9384   0.9434   0.9455   0.9512   0.9540
  0.9555   0.9590   0.9609   0.9627   0.9683   0.9689   0.9726   0.9747
  0.9767   0.9777   0.9825   0.9842   0.9878   0.9885   0.9916   0.9965
  0.9988   1.0002   1.0036   1.0063   1.0074   1.0105   1.0126   1.0147
  1.0189   1.0214   1.0244   1.0304   1.0326   1.0341   1.0378   1.0396
  1.0408   1.0436   1.0467   1.0497   1.0535   1.0553   1.0589   1.0629
  1.0646   1.0660   1.0694   1.0712   1.0754   1.0806   1.0835   1.0879
  1.0943   1.0948   1.0984   1.1021   1.1041   1.1069   1.1100   1.1122
  1.1177   1.1216   1.1253   1.1288   1.1314   1.1319   1.1372   1.1402
  1.1421   1.1437   1.1490   1.1501   1.1537   1.1572   1.1610   1.1639
  1.1683   1.1721   1.1759   1.1784   1.1820   1.1855   1.1876   1.1914
  1.1952   1.2000   1.2021   1.2042   1.2080   1.2105   1.2157   1.2223
  1.2267   1.2297   1.2335   1.2357   1.2426   1.2471   1.2521   1.2543
  1.2566   1.2590   1.2659   1.2749   1.2764   1.2815   1.2841   1.2906
  1.2910   1.2967   1.2980   1.3002   1.3082   1.3145   1.3174   1.3220
  1.3261   1.3290   1.3351   1.3385   1.3430   1.3494   1.3508   1.3533
  1.3616   1.3642   1.3698   1.3739   1.3833   1.3888   1.3962   1.4005
  1.4040   1.4065   1.4101   1.4149   1.4196   1.4214   1.4241   1.4302
  1.4313   1.4340   1.4376   1.4452   1.4466   1.4511   1.4552   1.4621
  1.4638   1.4649   1.4678   1.4716   1.4733   1.4749   1.4784   1.4833
  1.4862   1.4874   1.4884   1.4938   1.4982   1.5029   1.5048   1.5103
  1.5140   1.5164   1.5178   1.5194   1.5258   1.5349   1.5386   1.5410
  1.5443   1.5504   1.5520   1.5602   1.5628   1.5633   1.5681   1.5767
  1.5782   1.5802   1.5832   1.5882   1.5973   1.5994   1.6126   1.6153
  1.6194   1.6219   1.6260   1.6337   1.6372   1.6380   1.6415   1.6448
  1.6493   1.6541   1.6597   1.6621   1.6647   1.6670   1.6693   1.6731
  1.6799   1.6841   1.6878   1.6924   1.6944   1.6967   1.6997   1.7043
  1.7057   1.7071   1.7084   1.7124   1.7180   1.7203   1.7264   1.7287
  1.7331   1.7379   1.7399   1.7412   1.7420   1.7453   1.7499   1.7553
  1.7581   1.7596   1.7658   1.7674   1.7684   1.7716   1.7765   1.7776
  1.7815   1.7852   1.7861   1.7898   1.7932   1.7938   1.7986   1.8056
  1.8069   1.8130   1.8148   1.8196   1.8211   1.8241   1.8262   1.8275
  1.8291   1.8338   1.8392   1.8411   1.8473   1.8506   1.8584   1.8625
  1.8649   1.8721   1.8746   1.8770   1.8812   1.8835   1.8885   1.8947
  1.8994   1.9072   1.9106   1.9153   1.9196   1.9247   1.9272   1.9349
  1.9381   1.9411   1.9423   1.9437   1.9500   1.9511   1.9558   1.9614
  1.9643   1.9671   1.9707   1.9736   1.9790   1.9804   1.9851   1.9862
  1.9916   2.0008   2.0053   2.0079   2.0091   2.0124   2.0151   2.0185
  2.0255   2.0323   2.0365   2.0452   2.0478   2.0530   2.0575   2.0624
  2.0653   2.0663   2.0739   2.0777   2.0803   2.0842   2.0901   2.0905
  2.0967   2.1017   2.1068   2.1095   2.1163   2.1193   2.1224   2.1255
  2.1298   2.1317   2.1411   2.1442   2.1495   2.1508   2.1529   2.1614
  2.1618   2.1662   2.1730   2.1760   2.1826   2.1851   2.1916   2.1920
  2.1959   2.1978   2.2065   2.2099   2.2123   2.2192   2.2212   2.2234
  2.2278   2.2283   2.2325   2.2357   2.2399   2.2487   2.2509   2.2595
  2.2627   2.2682   2.2701   2.2772   2.2777   2.2789   2.2817   2.2855
  2.2897   2.2968   2.2972   2.2986   2.3017   2.3061   2.3093   2.3121
  2.3156   2.3171   2.3199   2.3255   2.3297   2.3364   2.3520   2.3566
  2.3643   2.3743   2.3774   2.3895   2.3919   2.3962   2.4004   2.4070
  2.4078   2.4129   2.4149   2.4176   2.4221   2.4267   2.4334   2.4341
  2.4445   2.4531   2.4608   2.4623   2.4675   2.4712   2.4757   2.4793
  2.4957   2.4966   2.5121   2.5128   2.5170   2.5218   2.5326   2.5464
  2.5475   2.5625   2.5732   2.5829   2.5853   2.5936   2.6035   2.6054
  2.6167   2.6321   2.6363   2.6430   2.6471   2.6701   2.6734   2.6808
  2.6886   2.6891   2.6907   2.6983   2.7023   2.7185   2.7263   2.7309
  2.7359   2.7446   2.7460   2.7488   2.7503   2.7583   2.7703   2.7714
  2.7767   2.7861   2.7899   2.7930   2.7982   2.8066   2.8137   2.8168
  2.8258   2.8356   2.8390   2.8427   2.8451   2.8524   2.8533   2.8569
  2.8609   2.8711   2.8764   2.8844   2.8858   2.8927   2.8955   2.9080
  2.9137   2.9233   2.9273   2.9352   2.9405   2.9440   2.9506   2.9543
  2.9646   2.9698   2.9777   2.9795   2.9832   2.9865   2.9936   3.0004
  3.0026   3.0131   3.0176   3.0242   3.0293   3.0308   3.0395   3.0463
  3.0533   3.0569   3.0595   3.0662   3.0688   3.0709   3.0760   3.0786
  3.0839   3.0903   3.0913   3.0966   3.0985   3.1009   3.1050   3.1074
  3.1088   3.1105   3.1160   3.1211   3.1233   3.1256   3.1319   3.1343
  3.1359   3.1391   3.1445   3.1461   3.1536   3.1568   3.1600   3.1636
  3.1654   3.1686   3.1720   3.1752   3.1780   3.1809   3.1889   3.1926
  3.2033   3.2101   3.2146   3.2197   3.2226   3.2238   3.2315   3.2349
  3.2377   3.2396   3.2453   3.2476   3.2514   3.2529   3.2586   3.2628
  3.2641   3.2678   3.2725   3.2775   3.2781   3.2822   3.2836   3.2876
  3.2892   3.2956   3.2966   3.2983   3.3037   3.3077   3.3110   3.3143
  3.3162   3.3213   3.3247   3.3293   3.3302   3.3335   3.3389   3.3413
  3.3472   3.3519   3.3549   3.3602   3.3651   3.3676   3.3703   3.3728
  3.3744   3.3821   3.3856   3.3863   3.3886   3.3912   3.3937   3.3976
  3.3998   3.4054   3.4074   3.4146   3.4177   3.4210   3.4247   3.4283
  3.4341   3.4360   3.4415   3.4502   3.4522   3.4590   3.4614   3.4648
  3.4670   3.4711   3.4727   3.4814   3.4836   3.4876   3.4902   3.4934
  3.5003   3.5006   3.5064   3.5103   3.5183   3.5197   3.5211   3.5271
  3.5292   3.5367   3.5389   3.5491   3.5526   3.5573   3.5580   3.5604
  3.5686   3.5728   3.5745   3.5781   3.5826   3.5872   3.5915   3.5952
  3.5970   3.5996   3.6070   3.6101   3.6113   3.6149   3.6178   3.6215
  3.6246   3.6294   3.6311   3.6344   3.6362   3.6388   3.6398   3.6461
  3.6540   3.6599   3.6659   3.6665   3.6688   3.6712   3.6788   3.6826
  3.6865   3.6907   3.6930   3.6961   3.7028   3.7043   3.7098   3.7158
  3.7191   3.7253   3.7345   3.7414   3.7455   3.7490   3.7534   3.7618
  3.7648   3.7699   3.7728   3.7753   3.7773   3.7800   3.7820   3.7850
  3.7877   3.7952   3.7991   3.8025   3.8052   3.8089   3.8126   3.8264
  3.8296   3.8355   3.8369   3.8406   3.8457   3.8484   3.8553   3.8565
  3.8604   3.8665   3.8714   3.8836   3.8867   3.8894   3.8967   3.9003
  3.9044   3.9126   3.9132   3.9142   3.9161   3.9230   3.9288   3.9348
  3.9384   3.9452   3.9510   3.9547   3.9576   3.9615   3.9656   3.9694
  3.9718   3.9735   3.9764   3.9864   3.9909   3.9954   4.0003   4.0087
  4.0154   4.0247   4.0337   4.0396   4.0446   4.0490   4.0544   4.0602
  4.0656   4.0695   4.0789   4.0887   4.1053   4.1062   4.1139   4.1224
  4.1275   4.1316   4.1353   4.1411   4.1464   4.1479   4.1511   4.1567
  4.1597   4.1624   4.1643   4.1699   4.1730   4.1786   4.1806   4.1828
  4.1858   4.1959   4.1974   4.2004   4.2088   4.2194   4.2275   4.2349
  4.2367   4.2437   4.2517   4.2595   4.2650   4.2711   4.2760   4.2817
  4.2880   4.2923   4.2992   4.3008   4.3056   4.3118   4.3139   4.3261
  4.3366   4.3413   4.3421   4.3577   4.3611   4.3668   4.3708   4.3725
  4.3736   4.3776   4.3857   4.3920   4.3970   4.4035   4.4054   4.4172
  4.4265   4.4294   4.4373   4.4386   4.4444   4.4527   4.4556   4.4617
  4.4676   4.4735   4.4809   4.4826   4.4859   4.4914   4.4931   4.4978
  4.5033   4.5115   4.5168   4.5200   4.5277   4.5298   4.5526   4.5555
  4.5589   4.5645   4.5674   4.5725   4.6007   4.6053   4.6122   4.6181
  4.6319   4.6356   4.6436   4.6488   4.6653   4.6770   4.6803   4.6877
  4.6945   4.7020   4.7093   4.7159   4.7233   4.7365   4.7384   4.7412
  4.7471   4.7617   4.7650   4.7759   4.7776   4.7860   4.7955   4.8073
  4.8125   4.8367   4.8383   4.8465   4.8499   4.8671   4.8724   4.8798
  4.8875   4.8885   4.9150   4.9164   4.9454   4.9546   4.9612   5.0012
  5.0082   5.0104   5.0316   5.0493   5.0669   5.0686   5.0848   5.0949
  5.0997   5.1021   5.1067   5.1176   5.1243   5.1335   5.1447   5.1592
  5.1601   5.1733   5.1969   5.2136   5.2189   5.2231   5.2351   5.2405
  5.2434   5.2455   5.2511   5.2559   5.2581   5.2601   5.2679   5.2734
  5.2931   5.2971   5.2973   5.2991   5.3166   5.3255   5.3310   5.3322
  5.3364   5.3394   5.3446   5.3531   5.3718   5.3786   5.3868   5.3926
  5.3992   5.4085   5.4256   5.4281   5.4439   5.4452   5.4517   5.4604
  5.4939   5.5082   5.5262   5.5408   5.5637   5.5957   5.5998   5.6136
  5.6282   5.6314   5.6556   5.6700   5.6768   5.6821   5.7180   5.7301
  5.7566   5.7571   5.7636   5.7696   5.7895   5.7977   5.8099   5.8148
  5.8730   5.8769   5.8823   5.8913   5.9187   5.9299   5.9535   5.9629
  6.0264   6.0657   6.0720   6.0723   6.2472   6.2484   6.2838   6.3034
  6.3049   6.3383   6.4128   6.4192   6.4783   6.5881   6.6836   6.7070
  6.8978   6.8984   6.9146   6.9159   6.9227   6.9232   6.9356   6.9383
  6.9479   6.9484   6.9514   6.9613   7.0013   7.0034   7.0056   7.0388
  7.0409   7.0486   7.0696   7.0741   7.0995   7.1148   7.1177   7.1198
  7.1289   7.1336   7.1471   7.1743   7.2479   7.2997   7.5009   7.5071
  7.5361   7.5371   7.5456   7.5484   7.5530   7.5631   7.5933   7.6020
  9.1147   9.1164   9.1729   9.1772   9.1866   9.1935   9.6282   9.6287
  9.6648   9.6673   9.6805   9.6853   9.7050   9.7066   9.7200   9.7259
  9.7583   9.7739  20.7906  20.7958  20.9529  20.9709  20.9772  21.0094
 22.8428  22.8753  22.8867  22.9387  22.9430  23.0464  23.1251  23.1295
 23.1341  23.1698  23.1771  23.2103  23.2967  23.3508  23.4067  23.4075
 23.4106  23.4943  23.4978  23.6023  23.6055  23.7082  23.7197  23.7943
 23.7998  23.8261  23.8342  23.9649  44.7052  44.7779
 --------------------------------------------------------------
 
          Ground-State Mulliken Net Atomic Charges

     Atom                 Charge (a.u.)
  ----------------------------------------
      1 C                    -0.134261
      2 C                    -0.183725
      3 C                    -0.516457
      4 C                     0.517479
      5 S                    -0.201939
      6 C                     0.447420
      7 C                    -0.296216
      8 C                    -0.412324
      9 C                     0.411382
     10 S                    -0.344927
     11 C                     0.366739
     12 C                    -0.269035
     13 C                    -0.393089
     14 C                     0.336662
     15 S                    -0.301864
     16 C                    -0.129838
     17 C                    -0.174824
     18 C                    -0.525221
     19 C                     0.577810
     20 S                    -0.206756
     21 C                     0.403603
     22 C                     0.366304
     23 C                    -0.165048
     24 C                     0.360259
     25 C                     0.323095
     26 C                    -0.123409
     27 C                    -0.292847
     28 C                     0.468278
     29 S                    -0.409415
     30 C                    -0.187448
     31 C                     0.451497
     32 S                    -0.439300
     33 O                    -0.598129
     34 C                    -0.503215
     35 O                    -0.613220
     36 C                    -0.472092
     37 H                     0.187762
     38 H                     0.146122
     39 H                     0.131791
     40 H                     0.106085
     41 H                     0.108406
     42 H                     0.105323
     43 H                     0.107083
     44 H                     0.185155
     45 H                     0.142551
     46 H                     0.114650
     47 H                     0.145732
     48 H                     0.150621
     49 H                     0.186657
     50 H                     0.207337
     51 H                     0.227046
     52 H                     0.187351
     53 H                     0.212648
     54 H                     0.211753
  ----------------------------------------
  Sum of atomic charges =     0.000000

 -----------------------------------------------------------------
                    Cartesian Multipole Moments
 -----------------------------------------------------------------
    Charge (ESU x 10^10)
                 0.0000
    Dipole Moment (Debye)
         X      -0.0639      Y      -0.3518      Z      -0.1361
       Tot       0.3825
    Quadrupole Moments (Debye-Ang)
        XX    -191.9517     XY      11.4774     YY    -234.5817
        XZ       2.8989     YZ      -7.1482     ZZ    -254.0959
    Octopole Moments (Debye-Ang^2)
       XXX      -4.5536    XXY     -26.5394    XYY     -44.7368
       YYY     -39.8533    XXZ      62.9635    XYZ      52.1828
       YYZ     -19.0577    XZZ      43.9469    YZZ       0.4219
       ZZZ     -12.8788
    Hexadecapole Moments (Debye-Ang^3)
      XXXX  -50352.8057   XXXY    1430.3135   XXYY  -10452.1643
      XYYY      33.3647   YYYY   -3293.5110   XXXZ     371.2573
      XXYZ     330.4960   XYYZ     156.5003   YYYZ     -69.8201
      XXZZ  -10711.0478   XYZZ      36.1213   YYZZ    -715.2110
      XZZZ     547.1162   YZZZ      51.0553   ZZZZ    -861.3566
 -----------------------------------------------------------------
Archival summary:
1\1\qnode0211\SP\ProcedureUnspecified\BasisUnspecified\622818\ahs1068\ThuAug508:59:482021ThuAug508:59:482021\0\\#,ProcedureUnspecified,BasisUnspecified,\\0,1\S\C,1,1.74456\C,2,1.38539,1,126.127\O,3,1.36637,2,120.749,1,-1.0393,0\C,3,1.39655,2,117.872,1,179.621,0\C,5,1.41354,3,119.743,2,0.105291,0\C,6,1.38556,5,122.385,3,-0.146311,0\O,7,1.36642,6,120.798,5,-179.305,0\C,7,1.3968,6,117.879,5,-0.13546,0\C,8,1.4242,7,113.715,6,-96.2769,0\H,10,1.08912,8,106.489,7,179.861,0\H,10,1.09511,8,110.915,7,60.7287,0\H,10,1.09525,8,110.982,7,-60.95,0\C,4,1.42433,3,113.719,2,97.1971,0\H,14,1.08912,4,106.488,3,-179.619,0\H,14,1.09504,4,110.901,3,-60.4839,0\H,14,1.09525,4,110.991,3,61.1847,0\C,5,1.43379,3,128.387,2,178.475,0\H,18,1.08181,5,123.142,3,-1.82501,0\C,18,1.35678,5,113.236,3,-179.511,0\C,9,1.43417,7,128.455,6,-179.346,0\H,21,1.08177,9,123.199,7,-0.358772,0\C,21,1.35653,9,113.24,7,-179.85,0\C,20,1.45248,18,127.849,5,179.803,0\C,24,1.36832,20,128.738,18,-155.032,0\H,25,1.08213,24,122.984,20,0.637627,0\C,25,1.41634,24,113.268,20,178.386,0\H,27,1.08195,25,123.85,24,-177.882,0\C,27,1.36821,25,113.231,24,0.168717,0\C,23,1.4531,21,128.077,9,-179.981,0\C,30,1.36843,23,128.44,21,-155.417,0\H,31,1.08218,30,122.938,23,0.541924,0\C,31,1.41632,30,113.286,23,-179.792,0\H,33,1.08195,31,123.924,30,178.581,0\C,33,1.36789,31,113.222,30,-0.0825365,0\C,29,1.45462,27,128.923,25,-179.063,0\C,36,1.36854,29,128.409,27,148.332,0\H,37,1.08218,36,122.824,29,-1.19247,0\C,37,1.42061,36,113.126,29,-179.694,0\H,39,1.08137,37,124.017,36,179.53,0\C,39,1.36055,37,112.612,36,0.0959135,0\H,41,1.07925,39,128.341,37,179.47,0\C,35,1.45524,33,128.719,31,179.696,0\C,43,1.3682,35,128.54,33,-145.926,0\H,44,1.08216,43,122.772,35,1.23575,0\C,44,1.42078,43,113.106,35,179.567,0\H,46,1.08139,44,123.971,43,-179.271,0\C,46,1.36075,44,112.627,43,-0.0821756,0\H,48,1.07932,46,128.224,44,-179.55,0\S,41,1.72069,39,111.793,37,-0.67217,0\S,48,1.72074,46,111.781,44,0.690967,0\S,29,1.73469,27,110.754,25,1.22321,0\S,35,1.73494,33,110.786,31,-0.0486392,0\S,6,1.74525,5,111.422,3,-179.483,0\\\@

 Total job time:  44834.94s(wall), 1039189.83s(cpu) 
 Thu Aug  5 08:59:48 2021

        *************************************************************
        *                                                           *
        *  Thank you very much for using Q-Chem.  Have a nice day.  *
        *                                                           *
        *************************************************************


remove work dirs /tmp/qchem103518.0 -- /tmp/qchem103518.-1
rm -rf /tmp/qchem103518
